s 0.089919306 _3_ MAC  --- 0 message 90 [0 ffffffff 3 800] [energy 1000.000000 ei 0.000 es 0.000 et 0.000 er 0.000] ------- [3:255 -1:255 32 0] 
N -t 0.089920 -n 2 -e 999.918406
N -t 0.089920 -n 12 -e 999.918406
N -t 0.089920 -n 18 -e 999.918406
N -t 0.089920 -n 5 -e 999.918406
N -t 0.089920 -n 13 -e 999.918406
N -t 0.089920 -n 14 -e 999.918406
N -t 0.089920 -n 17 -e 999.918406
N -t 0.089920 -n 15 -e 999.918406
N -t 0.089920 -n 24 -e 999.918406
N -t 0.089921 -n 23 -e 999.918405
N -t 0.089921 -n 0 -e 999.918405
N -t 0.089921 -n 9 -e 999.918405
N -t 0.089921 -n 22 -e 999.918405
N -t 0.089921 -n 20 -e 999.918405
N -t 0.089921 -n 10 -e 999.918405
N -t 0.089921 -n 1 -e 999.918405
N -t 0.089921 -n 11 -e 999.918405
r 0.090639708 _2_ MAC  --- 0 message 32 [0 ffffffff 3 800] [energy 999.918406 ei 0.081 es 0.000 et 0.000 er 0.001] ------- [3:255 -1:255 32 0] 
r 0.090639769 _12_ MAC  --- 0 message 32 [0 ffffffff 3 800] [energy 999.918406 ei 0.081 es 0.000 et 0.000 er 0.001] ------- [3:255 -1:255 32 0] 
r 0.090639936 _18_ MAC  --- 0 message 32 [0 ffffffff 3 800] [energy 999.918406 ei 0.081 es 0.000 et 0.000 er 0.001] ------- [3:255 -1:255 32 0] 
r 0.090640128 _5_ MAC  --- 0 message 32 [0 ffffffff 3 800] [energy 999.918406 ei 0.081 es 0.000 et 0.000 er 0.001] ------- [3:255 -1:255 32 0] 
s 0.197427145 _9_ MAC  --- 1 message 90 [0 ffffffff 9 800] [energy 999.918405 ei 0.081 es 0.000 et 0.000 er 0.001] ------- [9:255 -1:255 32 0] 
N -t 0.197427 -n 0 -e 999.821631
N -t 0.197427 -n 23 -e 999.821631
N -t 0.197427 -n 15 -e 999.821631
N -t 0.197427 -n 14 -e 999.821631
N -t 0.197428 -n 20 -e 999.821631
N -t 0.197428 -n 21 -e 999.821649
N -t 0.197428 -n 16 -e 999.821649
N -t 0.197428 -n 19 -e 999.821649
N -t 0.197428 -n 7 -e 999.821649
N -t 0.197428 -n 24 -e 999.821631
N -t 0.197428 -n 13 -e 999.821631
N -t 0.197428 -n 17 -e 999.821631
N -t 0.197428 -n 18 -e 999.821631
N -t 0.197428 -n 5 -e 999.821631
N -t 0.197428 -n 6 -e 999.821648
N -t 0.197428 -n 2 -e 999.821630
N -t 0.197428 -n 10 -e 999.821630
N -t 0.197429 -n 3 -e 999.821270
N -t 0.197429 -n 4 -e 999.821648
N -t 0.197429 -n 1 -e 999.821630
N -t 0.197429 -n 12 -e 999.821630
r 0.198147260 _0_ MAC  --- 1 message 32 [0 ffffffff 9 800] [energy 999.821631 ei 0.177 es 0.000 et 0.000 er 0.001] ------- [9:255 -1:255 32 0] 
r 0.198147370 _23_ MAC  --- 1 message 32 [0 ffffffff 9 800] [energy 999.821631 ei 0.177 es 0.000 et 0.000 er 0.001] ------- [9:255 -1:255 32 0] 
r 0.198147406 _15_ MAC  --- 1 message 32 [0 ffffffff 9 800] [energy 999.821631 ei 0.177 es 0.000 et 0.000 er 0.001] ------- [9:255 -1:255 32 0] 
r 0.198147478 _14_ MAC  --- 1 message 32 [0 ffffffff 9 800] [energy 999.821631 ei 0.177 es 0.000 et 0.000 er 0.001] ------- [9:255 -1:255 32 0] 
r 0.198147725 _20_ MAC  --- 1 message 32 [0 ffffffff 9 800] [energy 999.821631 ei 0.177 es 0.000 et 0.000 er 0.001] ------- [9:255 -1:255 32 0] 
r 0.198147813 _21_ MAC  --- 1 message 32 [0 ffffffff 9 800] [energy 999.821649 ei 0.178 es 0.000 et 0.000 er 0.001] ------- [9:255 -1:255 32 0] 
r 0.198147828 _16_ MAC  --- 1 message 32 [0 ffffffff 9 800] [energy 999.821649 ei 0.178 es 0.000 et 0.000 er 0.001] ------- [9:255 -1:255 32 0] 
r 0.198147845 _19_ MAC  --- 1 message 32 [0 ffffffff 9 800] [energy 999.821649 ei 0.178 es 0.000 et 0.000 er 0.001] ------- [9:255 -1:255 32 0] 
r 0.198147952 _7_ MAC  --- 1 message 32 [0 ffffffff 9 800] [energy 999.821649 ei 0.178 es 0.000 et 0.000 er 0.001] ------- [9:255 -1:255 32 0] 
s 0.228615523 _5_ MAC  --- 2 message 90 [0 ffffffff 5 800] [energy 999.821631 ei 0.177 es 0.000 et 0.000 er 0.001] ------- [5:255 -1:255 32 0] 
N -t 0.228616 -n 13 -e 999.793544
N -t 0.228616 -n 17 -e 999.793544
N -t 0.228616 -n 24 -e 999.793544
N -t 0.228616 -n 12 -e 999.793543
N -t 0.228616 -n 10 -e 999.793543
N -t 0.228616 -n 3 -e 999.793183
N -t 0.228616 -n 14 -e 999.793543
N -t 0.228616 -n 1 -e 999.793543
N -t 0.228617 -n 22 -e 999.793561
N -t 0.228617 -n 20 -e 999.793543
N -t 0.228617 -n 15 -e 999.793543
N -t 0.228617 -n 2 -e 999.793543
N -t 0.228617 -n 0 -e 999.793543
N -t 0.228617 -n 18 -e 999.793543
N -t 0.228617 -n 9 -e 999.793183
N -t 0.228617 -n 23 -e 999.793543
N -t 0.228617 -n 7 -e 999.793561
N -t 0.228617 -n 11 -e 999.793561
N -t 0.228617 -n 19 -e 999.793561
N -t 0.228617 -n 21 -e 999.793560
r 0.229335685 _13_ MAC  --- 2 message 32 [0 ffffffff 5 800] [energy 999.793544 ei 0.204 es 0.000 et 0.000 er 0.002] ------- [5:255 -1:255 32 0] 
r 0.229335896 _17_ MAC  --- 2 message 32 [0 ffffffff 5 800] [energy 999.793544 ei 0.204 es 0.000 et 0.000 er 0.002] ------- [5:255 -1:255 32 0] 
r 0.229336007 _24_ MAC  --- 2 message 32 [0 ffffffff 5 800] [energy 999.793544 ei 0.204 es 0.000 et 0.000 er 0.002] ------- [5:255 -1:255 32 0] 
r 0.229336260 _12_ MAC  --- 2 message 32 [0 ffffffff 5 800] [energy 999.793543 ei 0.204 es 0.000 et 0.000 er 0.002] ------- [5:255 -1:255 32 0] 
r 0.229336331 _10_ MAC  --- 2 message 32 [0 ffffffff 5 800] [energy 999.793543 ei 0.204 es 0.000 et 0.000 er 0.002] ------- [5:255 -1:255 32 0] 
r 0.229336345 _3_ MAC  --- 2 message 32 [0 ffffffff 5 800] [energy 999.793183 ei 0.204 es 0.000 et 0.001 er 0.001] ------- [5:255 -1:255 32 0] 
s 0.329876848 _2_ MAC  --- 3 message 90 [0 ffffffff 2 800] [energy 999.793543 ei 0.204 es 0.000 et 0.000 er 0.002] ------- [2:255 -1:255 32 0] 
N -t 0.329877 -n 18 -e 999.702391
N -t 0.329877 -n 3 -e 999.702030
N -t 0.329878 -n 12 -e 999.702390
N -t 0.329878 -n 15 -e 999.702390
N -t 0.329878 -n 14 -e 999.702390
N -t 0.329878 -n 5 -e 999.702030
N -t 0.329878 -n 23 -e 999.702390
N -t 0.329878 -n 13 -e 999.702390
N -t 0.329878 -n 0 -e 999.702390
N -t 0.329878 -n 9 -e 999.702030
N -t 0.329878 -n 24 -e 999.702390
N -t 0.329878 -n 17 -e 999.702390
N -t 0.329879 -n 20 -e 999.702389
r 0.330597148 _18_ MAC  --- 3 message 32 [0 ffffffff 2 800] [energy 999.702391 ei 0.295 es 0.000 et 0.000 er 0.003] ------- [2:255 -1:255 32 0] 
r 0.330597250 _3_ MAC  --- 3 message 32 [0 ffffffff 2 800] [energy 999.702030 ei 0.295 es 0.000 et 0.001 er 0.002] ------- [2:255 -1:255 32 0] 
s 0.355453727 _8_ MAC  --- 4 message 90 [0 ffffffff 8 800] [energy 1000.000000 ei 0.000 es 0.000 et 0.000 er 0.000] ------- [8:255 -1:255 32 0] 
N -t 0.355455 -n 1 -e 999.679370
N -t 0.355455 -n 6 -e 999.679406
N -t 0.355455 -n 10 -e 999.679370
N -t 0.355455 -n 7 -e 999.679388
N -t 0.355456 -n 4 -e 999.679406
N -t 0.355456 -n 20 -e 999.679352
s 0.438950792 _19_ MAC  --- 5 message 90 [0 ffffffff 13 800] [energy 999.793561 ei 0.205 es 0.000 et 0.000 er 0.001] ------- [19:255 -1:255 32 0] 
N -t 0.438951 -n 7 -e 999.604224
N -t 0.438951 -n 21 -e 999.604242
N -t 0.438951 -n 16 -e 999.604260
N -t 0.438951 -n 6 -e 999.604242
N -t 0.438951 -n 20 -e 999.604188
N -t 0.438951 -n 9 -e 999.603846
N -t 0.438952 -n 4 -e 999.604242
N -t 0.438952 -n 0 -e 999.604206
N -t 0.438952 -n 23 -e 999.604205
N -t 0.438952 -n 14 -e 999.604205
N -t 0.438952 -n 15 -e 999.604205
N -t 0.438952 -n 24 -e 999.604205
N -t 0.438952 -n 17 -e 999.604205
N -t 0.438952 -n 10 -e 999.604205
N -t 0.438952 -n 13 -e 999.604205
N -t 0.438952 -n 1 -e 999.604205
N -t 0.438952 -n 5 -e 999.603845
N -t 0.438953 -n 18 -e 999.604205
r 0.439671052 _7_ MAC  --- 5 message 32 [0 ffffffff 13 800] [energy 999.604224 ei 0.393 es 0.000 et 0.000 er 0.003] ------- [19:255 -1:255 32 0] 
r 0.439671113 _21_ MAC  --- 5 message 32 [0 ffffffff 13 800] [energy 999.604242 ei 0.394 es 0.000 et 0.000 er 0.002] ------- [19:255 -1:255 32 0] 
r 0.439671331 _16_ MAC  --- 5 message 32 [0 ffffffff 13 800] [energy 999.604260 ei 0.394 es 0.000 et 0.000 er 0.001] ------- [19:255 -1:255 32 0] 
r 0.439671352 _6_ MAC  --- 5 message 32 [0 ffffffff 13 800] [energy 999.604242 ei 0.394 es 0.000 et 0.000 er 0.002] ------- [19:255 -1:255 32 0] 
r 0.439671373 _20_ MAC  --- 5 message 32 [0 ffffffff 13 800] [energy 999.604188 ei 0.392 es 0.000 et 0.000 er 0.004] ------- [19:255 -1:255 32 0] 
r 0.439671492 _9_ MAC  --- 5 message 32 [0 ffffffff 13 800] [energy 999.603846 ei 0.392 es 0.000 et 0.001 er 0.003] ------- [19:255 -1:255 32 0] 
r 0.439671507 _4_ MAC  --- 5 message 32 [0 ffffffff 13 800] [energy 999.604242 ei 0.394 es 0.000 et 0.000 er 0.002] ------- [19:255 -1:255 32 0] 
r 0.439671601 _0_ MAC  --- 5 message 32 [0 ffffffff 13 800] [energy 999.604206 ei 0.392 es 0.000 et 0.000 er 0.003] ------- [19:255 -1:255 32 0] 
s 0.490656127 _20_ MAC  --- 6 message 90 [0 ffffffff 14 800] [energy 999.604188 ei 0.392 es 0.000 et 0.000 er 0.004] ------- [20:255 -1:255 32 0] 
N -t 0.490657 -n 7 -e 999.557671
N -t 0.490657 -n 9 -e 999.557293
N -t 0.490657 -n 19 -e 999.557329
N -t 0.490657 -n 14 -e 999.557653
N -t 0.490657 -n 24 -e 999.557653
N -t 0.490657 -n 0 -e 999.557653
N -t 0.490657 -n 23 -e 999.557653
N -t 0.490657 -n 15 -e 999.557653
N -t 0.490657 -n 17 -e 999.557653
N -t 0.490657 -n 21 -e 999.557689
N -t 0.490657 -n 10 -e 999.557653
N -t 0.490657 -n 13 -e 999.557653
N -t 0.490657 -n 1 -e 999.557653
N -t 0.490657 -n 16 -e 999.557707
N -t 0.490657 -n 6 -e 999.557689
N -t 0.490657 -n 5 -e 999.557293
N -t 0.490657 -n 4 -e 999.557688
N -t 0.490658 -n 18 -e 999.557652
N -t 0.490658 -n 3 -e 999.557310
N -t 0.490658 -n 2 -e 999.557310
N -t 0.490658 -n 12 -e 999.557670
N -t 0.490658 -n 8 -e 999.557364
r 0.491376595 _7_ MAC  --- 6 message 32 [0 ffffffff 14 800] [energy 999.557671 ei 0.439 es 0.000 et 0.000 er 0.003] ------- [20:255 -1:255 32 0] 
r 0.491376708 _9_ MAC  --- 6 message 32 [0 ffffffff 14 800] [energy 999.557293 ei 0.438 es 0.000 et 0.001 er 0.003] ------- [20:255 -1:255 32 0] 
r 0.491376708 _19_ MAC  --- 6 message 32 [0 ffffffff 14 800] [energy 999.557329 ei 0.440 es 0.000 et 0.001 er 0.002] ------- [20:255 -1:255 32 0] 
r 0.491376722 _14_ MAC  --- 6 message 32 [0 ffffffff 14 800] [energy 999.557653 ei 0.438 es 0.000 et 0.000 er 0.004] ------- [20:255 -1:255 32 0] 
r 0.491376724 _24_ MAC  --- 6 message 32 [0 ffffffff 14 800] [energy 999.557653 ei 0.438 es 0.000 et 0.000 er 0.004] ------- [20:255 -1:255 32 0] 
r 0.491376808 _0_ MAC  --- 6 message 32 [0 ffffffff 14 800] [energy 999.557653 ei 0.438 es 0.000 et 0.000 er 0.004] ------- [20:255 -1:255 32 0] 
r 0.491376915 _23_ MAC  --- 6 message 32 [0 ffffffff 14 800] [energy 999.557653 ei 0.438 es 0.000 et 0.000 er 0.004] ------- [20:255 -1:255 32 0] 
r 0.491376918 _15_ MAC  --- 6 message 32 [0 ffffffff 14 800] [energy 999.557653 ei 0.438 es 0.000 et 0.000 er 0.004] ------- [20:255 -1:255 32 0] 
r 0.491376924 _17_ MAC  --- 6 message 32 [0 ffffffff 14 800] [energy 999.557653 ei 0.438 es 0.000 et 0.000 er 0.004] ------- [20:255 -1:255 32 0] 
r 0.491376932 _21_ MAC  --- 6 message 32 [0 ffffffff 14 800] [energy 999.557689 ei 0.440 es 0.000 et 0.000 er 0.003] ------- [20:255 -1:255 32 0] 
s 0.523320270 _12_ MAC  --- 7 message 90 [0 ffffffff c 800] [energy 999.557670 ei 0.439 es 0.000 et 0.000 er 0.003] ------- [12:255 -1:255 32 0] 
N -t 0.523321 -n 3 -e 999.527895
N -t 0.523321 -n 5 -e 999.527877
N -t 0.523321 -n 2 -e 999.527895
N -t 0.523321 -n 13 -e 999.528237
N -t 0.523321 -n 18 -e 999.528237
N -t 0.523321 -n 17 -e 999.528237
N -t 0.523321 -n 22 -e 999.528309
N -t 0.523321 -n 24 -e 999.528237
N -t 0.523322 -n 11 -e 999.528309
N -t 0.523322 -n 14 -e 999.528237
N -t 0.523322 -n 15 -e 999.528236
N -t 0.523322 -n 10 -e 999.528236
N -t 0.523322 -n 23 -e 999.528236
N -t 0.523322 -n 1 -e 999.528236
N -t 0.523322 -n 0 -e 999.528236
N -t 0.523322 -n 9 -e 999.527876
N -t 0.523322 -n 20 -e 999.527858
r 0.524040733 _3_ MAC  --- 7 message 32 [0 ffffffff c 800] [energy 999.527895 ei 0.468 es 0.000 et 0.001 er 0.003] ------- [12:255 -1:255 32 0] 
r 0.524041007 _5_ MAC  --- 7 message 32 [0 ffffffff c 800] [energy 999.527877 ei 0.467 es 0.000 et 0.001 er 0.004] ------- [12:255 -1:255 32 0] 
s 0.623270333 _0_ MAC  --- 8 message 90 [0 ffffffff 0 800] [energy 999.528236 ei 0.467 es 0.000 et 0.000 er 0.005] ------- [0:255 -1:255 32 0] 
N -t 0.623270 -n 23 -e 999.438265
N -t 0.623270 -n 9 -e 999.437905
N -t 0.623270 -n 15 -e 999.438265
N -t 0.623271 -n 14 -e 999.438264
N -t 0.623271 -n 20 -e 999.437886
N -t 0.623271 -n 16 -e 999.438336
N -t 0.623271 -n 21 -e 999.438318
N -t 0.623271 -n 19 -e 999.437958
N -t 0.623271 -n 24 -e 999.438264
N -t 0.623271 -n 7 -e 999.438300
N -t 0.623271 -n 18 -e 999.438264
N -t 0.623271 -n 13 -e 999.438264
N -t 0.623271 -n 17 -e 999.438264
N -t 0.623271 -n 5 -e 999.437904
N -t 0.623272 -n 2 -e 999.437922
N -t 0.623272 -n 3 -e 999.437922
N -t 0.623272 -n 6 -e 999.438317
N -t 0.623272 -n 10 -e 999.438263
N -t 0.623272 -n 1 -e 999.438263
N -t 0.623272 -n 4 -e 999.438317
N -t 0.623272 -n 12 -e 999.437921
r 0.623990444 _23_ MAC  --- 8 message 32 [0 ffffffff 0 800] [energy 999.438265 ei 0.556 es 0.000 et 0.000 er 0.005] ------- [0:255 -1:255 32 0] 
r 0.623990448 _9_ MAC  --- 8 message 32 [0 ffffffff 0 800] [energy 999.437905 ei 0.556 es 0.000 et 0.001 er 0.005] ------- [0:255 -1:255 32 0] 
r 0.623990483 _15_ MAC  --- 8 message 32 [0 ffffffff 0 800] [energy 999.438265 ei 0.556 es 0.000 et 0.000 er 0.005] ------- [0:255 -1:255 32 0] 
r 0.623990649 _14_ MAC  --- 8 message 32 [0 ffffffff 0 800] [energy 999.438264 ei 0.556 es 0.000 et 0.000 er 0.005] ------- [0:255 -1:255 32 0] 
r 0.623991014 _20_ MAC  --- 8 message 32 [0 ffffffff 0 800] [energy 999.437886 ei 0.556 es 0.000 et 0.001 er 0.005] ------- [0:255 -1:255 32 0] 
r 0.623991070 _16_ MAC  --- 8 message 32 [0 ffffffff 0 800] [energy 999.438336 ei 0.559 es 0.000 et 0.000 er 0.003] ------- [0:255 -1:255 32 0] 
r 0.623991083 _21_ MAC  --- 8 message 32 [0 ffffffff 0 800] [energy 999.438318 ei 0.558 es 0.000 et 0.000 er 0.003] ------- [0:255 -1:255 32 0] 
r 0.623991142 _19_ MAC  --- 8 message 32 [0 ffffffff 0 800] [energy 999.437958 ei 0.558 es 0.000 et 0.001 er 0.003] ------- [0:255 -1:255 32 0] 
s 0.705167962 _11_ MAC  --- 9 message 90 [0 ffffffff b 800] [energy 999.528309 ei 0.470 es 0.000 et 0.000 er 0.002] ------- [11:255 -1:255 32 0] 
N -t 0.705169 -n 22 -e 999.364628
N -t 0.705169 -n 12 -e 999.364196
N -t 0.705170 -n 5 -e 999.364177
N -t 0.705170 -n 13 -e 999.364537
N -t 0.705170 -n 17 -e 999.364537
N -t 0.705170 -n 3 -e 999.364195
r 0.705888735 _22_ MAC  --- 9 message 32 [0 ffffffff b 800] [energy 999.364628 ei 0.633 es 0.000 et 0.000 er 0.003] ------- [11:255 -1:255 32 0] 
s 0.827074829 _13_ MAC  --- 10 message 90 [0 ffffffff d 800] [energy 999.364537 ei 0.629 es 0.000 et 0.000 er 0.006] ------- [13:255 -1:255 32 0] 
N -t 0.827075 -n 5 -e 999.254445
N -t 0.827075 -n 17 -e 999.254804
N -t 0.827075 -n 24 -e 999.254822
N -t 0.827076 -n 10 -e 999.254822
N -t 0.827076 -n 14 -e 999.254822
N -t 0.827076 -n 1 -e 999.254822
N -t 0.827076 -n 12 -e 999.254462
N -t 0.827076 -n 20 -e 999.254444
N -t 0.827076 -n 3 -e 999.254462
N -t 0.827076 -n 15 -e 999.254822
N -t 0.827076 -n 9 -e 999.254462
N -t 0.827076 -n 0 -e 999.254462
N -t 0.827076 -n 23 -e 999.254822
N -t 0.827076 -n 22 -e 999.254894
N -t 0.827076 -n 2 -e 999.254480
N -t 0.827076 -n 18 -e 999.254822
N -t 0.827076 -n 7 -e 999.254857
N -t 0.827076 -n 19 -e 999.254515
N -t 0.827076 -n 21 -e 999.254875
N -t 0.827077 -n 16 -e 999.254893
N -t 0.827077 -n 11 -e 999.254533
r 0.827794990 _5_ MAC  --- 10 message 32 [0 ffffffff d 800] [energy 999.254445 ei 0.739 es 0.000 et 0.001 er 0.006] ------- [13:255 -1:255 32 0] 
r 0.827795076 _17_ MAC  --- 10 message 32 [0 ffffffff d 800] [energy 999.254804 ei 0.739 es 0.000 et 0.000 er 0.007] ------- [13:255 -1:255 32 0] 
r 0.827795152 _24_ MAC  --- 10 message 32 [0 ffffffff d 800] [energy 999.254822 ei 0.739 es 0.000 et 0.000 er 0.006] ------- [13:255 -1:255 32 0] 
r 0.827795532 _10_ MAC  --- 10 message 32 [0 ffffffff d 800] [energy 999.254822 ei 0.739 es 0.000 et 0.000 er 0.006] ------- [13:255 -1:255 32 0] 
r 0.827795555 _14_ MAC  --- 10 message 32 [0 ffffffff d 800] [energy 999.254822 ei 0.739 es 0.000 et 0.000 er 0.006] ------- [13:255 -1:255 32 0] 
r 0.827795631 _1_ MAC  --- 10 message 32 [0 ffffffff d 800] [energy 999.254822 ei 0.739 es 0.000 et 0.000 er 0.006] ------- [13:255 -1:255 32 0] 
s 0.854866878 _7_ MAC  --- 11 message 90 [0 ffffffff 7 800] [energy 999.254857 ei 0.740 es 0.000 et 0.000 er 0.005] ------- [7:255 -1:255 32 0] 
N -t 0.854867 -n 19 -e 999.229486
N -t 0.854867 -n 20 -e 999.229413
N -t 0.854867 -n 6 -e 999.229863
N -t 0.854867 -n 21 -e 999.229845
N -t 0.854868 -n 4 -e 999.229863
N -t 0.854868 -n 16 -e 999.229863
N -t 0.854868 -n 9 -e 999.229431
N -t 0.854868 -n 0 -e 999.229431
N -t 0.854868 -n 14 -e 999.229791
N -t 0.854868 -n 23 -e 999.229791
N -t 0.854868 -n 24 -e 999.229791
N -t 0.854868 -n 15 -e 999.229791
N -t 0.854868 -n 10 -e 999.229791
N -t 0.854868 -n 17 -e 999.229773
N -t 0.854868 -n 1 -e 999.229791
N -t 0.854868 -n 13 -e 999.229413
N -t 0.854868 -n 5 -e 999.229412
N -t 0.854869 -n 8 -e 999.229556
r 0.855587138 _19_ MAC  --- 11 message 32 [0 ffffffff 7 800] [energy 999.229486 ei 0.765 es 0.000 et 0.001 er 0.004] ------- [7:255 -1:255 32 0] 
r 0.855587346 _20_ MAC  --- 11 message 32 [0 ffffffff 7 800] [energy 999.229413 ei 0.763 es 0.000 et 0.001 er 0.007] ------- [7:255 -1:255 32 0] 
r 0.855587410 _6_ MAC  --- 11 message 32 [0 ffffffff 7 800] [energy 999.229863 ei 0.766 es 0.000 et 0.000 er 0.004] ------- [7:255 -1:255 32 0] 
r 0.855587459 _21_ MAC  --- 11 message 32 [0 ffffffff 7 800] [energy 999.229845 ei 0.765 es 0.000 et 0.000 er 0.005] ------- [7:255 -1:255 32 0] 
r 0.855587643 _4_ MAC  --- 11 message 32 [0 ffffffff 7 800] [energy 999.229863 ei 0.766 es 0.000 et 0.000 er 0.004] ------- [7:255 -1:255 32 0] 
r 0.855587675 _16_ MAC  --- 11 message 32 [0 ffffffff 7 800] [energy 999.229863 ei 0.766 es 0.000 et 0.000 er 0.004] ------- [7:255 -1:255 32 0] 
r 0.855587686 _9_ MAC  --- 11 message 32 [0 ffffffff 7 800] [energy 999.229431 ei 0.764 es 0.000 et 0.001 er 0.006] ------- [7:255 -1:255 32 0] 
s 0.940762696 _15_ MAC  --- 12 message 90 [0 ffffffff f 800] [energy 999.229791 ei 0.764 es 0.000 et 0.000 er 0.007] ------- [15:255 -1:255 32 0] 
N -t 0.940763 -n 23 -e 999.152468
N -t 0.940763 -n 0 -e 999.152107
N -t 0.940763 -n 9 -e 999.152107
N -t 0.940763 -n 14 -e 999.152467
N -t 0.940763 -n 20 -e 999.152089
N -t 0.940764 -n 18 -e 999.152485
N -t 0.940764 -n 16 -e 999.152539
N -t 0.940764 -n 21 -e 999.152521
N -t 0.940764 -n 24 -e 999.152467
N -t 0.940764 -n 19 -e 999.152161
N -t 0.940764 -n 13 -e 999.152089
N -t 0.940764 -n 2 -e 999.152143
N -t 0.940764 -n 7 -e 999.152143
N -t 0.940764 -n 17 -e 999.152449
N -t 0.940764 -n 5 -e 999.152089
N -t 0.940764 -n 3 -e 999.152125
N -t 0.940764 -n 10 -e 999.152466
N -t 0.940764 -n 12 -e 999.152124
N -t 0.940764 -n 6 -e 999.152538
N -t 0.940764 -n 1 -e 999.152466
N -t 0.940764 -n 4 -e 999.152538
r 0.941482774 _23_ MAC  --- 12 message 32 [0 ffffffff f 800] [energy 999.152468 ei 0.840 es 0.000 et 0.000 er 0.007] ------- [15:255 -1:255 32 0] 
r 0.941482846 _0_ MAC  --- 12 message 32 [0 ffffffff f 800] [energy 999.152107 ei 0.840 es 0.000 et 0.001 er 0.007] ------- [15:255 -1:255 32 0] 
r 0.941482958 _9_ MAC  --- 12 message 32 [0 ffffffff f 800] [energy 999.152107 ei 0.840 es 0.000 et 0.001 er 0.007] ------- [15:255 -1:255 32 0] 
r 0.941483002 _14_ MAC  --- 12 message 32 [0 ffffffff f 800] [energy 999.152467 ei 0.840 es 0.000 et 0.000 er 0.007] ------- [15:255 -1:255 32 0] 
r 0.941483487 _20_ MAC  --- 12 message 32 [0 ffffffff f 800] [energy 999.152089 ei 0.840 es 0.000 et 0.001 er 0.007] ------- [15:255 -1:255 32 0] 
r 0.941483513 _18_ MAC  --- 12 message 32 [0 ffffffff f 800] [energy 999.152485 ei 0.841 es 0.000 et 0.000 er 0.007] ------- [15:255 -1:255 32 0] 
s 1.041476365 _14_ MAC  --- 13 message 90 [0 ffffffff e 800] [energy 999.152467 ei 0.840 es 0.000 et 0.000 er 0.007] ------- [14:255 -1:255 32 0] 
N -t 1.041477 -n 15 -e 999.061447
N -t 1.041477 -n 0 -e 999.061447
N -t 1.041477 -n 9 -e 999.061447
N -t 1.041477 -n 23 -e 999.061807
N -t 1.041477 -n 20 -e 999.061429
N -t 1.041477 -n 24 -e 999.061807
N -t 1.041477 -n 13 -e 999.061429
N -t 1.041477 -n 17 -e 999.061789
N -t 1.041477 -n 5 -e 999.061429
N -t 1.041477 -n 18 -e 999.061824
N -t 1.041477 -n 19 -e 999.061500
N -t 1.041477 -n 7 -e 999.061482
N -t 1.041477 -n 21 -e 999.061860
N -t 1.041477 -n 16 -e 999.061878
N -t 1.041477 -n 2 -e 999.061482
N -t 1.041477 -n 3 -e 999.061464
N -t 1.041477 -n 10 -e 999.061806
N -t 1.041478 -n 1 -e 999.061806
N -t 1.041478 -n 12 -e 999.061464
N -t 1.041478 -n 6 -e 999.061878
N -t 1.041478 -n 4 -e 999.061878
N -t 1.041478 -n 22 -e 999.061914
r 1.042196671 _15_ MAC  --- 13 message 32 [0 ffffffff e 800] [energy 999.061447 ei 0.930 es 0.000 et 0.001 er 0.007] ------- [14:255 -1:255 32 0] 
r 1.042196681 _0_ MAC  --- 13 message 32 [0 ffffffff e 800] [energy 999.061447 ei 0.930 es 0.000 et 0.001 er 0.007] ------- [14:255 -1:255 32 0] 
r 1.042196698 _9_ MAC  --- 13 message 32 [0 ffffffff e 800] [energy 999.061447 ei 0.930 es 0.000 et 0.001 er 0.007] ------- [14:255 -1:255 32 0] 
r 1.042196722 _23_ MAC  --- 13 message 32 [0 ffffffff e 800] [energy 999.061807 ei 0.930 es 0.000 et 0.000 er 0.008] ------- [14:255 -1:255 32 0] 
r 1.042196960 _20_ MAC  --- 13 message 32 [0 ffffffff e 800] [energy 999.061429 ei 0.930 es 0.000 et 0.001 er 0.008] ------- [14:255 -1:255 32 0] 
r 1.042196972 _24_ MAC  --- 13 message 32 [0 ffffffff e 800] [energy 999.061807 ei 0.930 es 0.000 et 0.000 er 0.008] ------- [14:255 -1:255 32 0] 
r 1.042197091 _13_ MAC  --- 13 message 32 [0 ffffffff e 800] [energy 999.061429 ei 0.930 es 0.000 et 0.001 er 0.008] ------- [14:255 -1:255 32 0] 
r 1.042197165 _17_ MAC  --- 13 message 32 [0 ffffffff e 800] [energy 999.061789 ei 0.930 es 0.000 et 0.000 er 0.009] ------- [14:255 -1:255 32 0] 
s 1.281204617 _4_ MAC  --- 14 message 90 [0 ffffffff 4 800] [energy 999.061878 ei 0.933 es 0.000 et 0.000 er 0.005] ------- [4:255 -1:255 32 0] 
N -t 1.281205 -n 6 -e 998.846106
N -t 1.281205 -n 19 -e 998.845727
N -t 1.281205 -n 7 -e 998.845709
N -t 1.281205 -n 21 -e 998.846087
N -t 1.281206 -n 16 -e 998.846105
N -t 1.281206 -n 20 -e 998.845655
N -t 1.281206 -n 9 -e 998.845673
N -t 1.281206 -n 0 -e 998.845672
N -t 1.281206 -n 23 -e 998.846032
N -t 1.281206 -n 15 -e 998.845672
N -t 1.281206 -n 14 -e 998.845672
N -t 1.281206 -n 8 -e 998.845834
N -t 1.281206 -n 24 -e 998.846032
r 1.281924893 _6_ MAC  --- 14 message 32 [0 ffffffff 4 800] [energy 998.846106 ei 1.148 es 0.000 et 0.000 er 0.006] ------- [4:255 -1:255 32 0] 
r 1.281925333 _19_ MAC  --- 14 message 32 [0 ffffffff 4 800] [energy 998.845727 ei 1.147 es 0.000 et 0.001 er 0.006] ------- [4:255 -1:255 32 0] 
r 1.281925383 _7_ MAC  --- 14 message 32 [0 ffffffff 4 800] [energy 998.845709 ei 1.147 es 0.000 et 0.001 er 0.007] ------- [4:255 -1:255 32 0] 
r 1.281925418 _21_ MAC  --- 14 message 32 [0 ffffffff 4 800] [energy 998.846087 ei 1.147 es 0.000 et 0.000 er 0.007] ------- [4:255 -1:255 32 0] 
s 1.355260810 _22_ MAC  --- 15 message 90 [0 ffffffff 16 800] [energy 999.061914 ei 0.934 es 0.000 et 0.000 er 0.004] ------- [22:255 -1:255 32 0] 
N -t 1.355262 -n 11 -e 998.779149
N -t 1.355262 -n 5 -e 998.779004
N -t 1.355262 -n 17 -e 998.779364
N -t 1.355262 -n 13 -e 998.779004
N -t 1.355262 -n 1 -e 998.779382
N -t 1.355262 -n 10 -e 998.779382
N -t 1.355262 -n 12 -e 998.779040
N -t 1.355262 -n 24 -e 998.779364
N -t 1.355262 -n 3 -e 998.779040
N -t 1.355263 -n 14 -e 998.779004
r 1.355981582 _11_ MAC  --- 15 message 32 [0 ffffffff 16 800] [energy 998.779149 ei 1.216 es 0.000 et 0.001 er 0.003] ------- [22:255 -1:255 32 0] 
s 1.388266013 _16_ MAC  --- 16 message 90 [0 ffffffff 10 800] [energy 998.846105 ei 1.148 es 0.000 et 0.000 er 0.006] ------- [16:255 -1:255 32 0] 
N -t 1.388266 -n 21 -e 998.749714
N -t 1.388267 -n 19 -e 998.749354
N -t 1.388267 -n 9 -e 998.749300
N -t 1.388267 -n 0 -e 998.749300
N -t 1.388267 -n 23 -e 998.749660
N -t 1.388267 -n 7 -e 998.749336
N -t 1.388267 -n 15 -e 998.749300
N -t 1.388267 -n 6 -e 998.749732
N -t 1.388267 -n 4 -e 998.749372
N -t 1.388267 -n 20 -e 998.749282
N -t 1.388267 -n 14 -e 998.749282
N -t 1.388267 -n 24 -e 998.749641
N -t 1.388268 -n 18 -e 998.749695
N -t 1.388268 -n 17 -e 998.749641
N -t 1.388268 -n 13 -e 998.749281
N -t 1.388268 -n 10 -e 998.749659
r 1.388986234 _21_ MAC  --- 16 message 32 [0 ffffffff 10 800] [energy 998.749714 ei 1.243 es 0.000 et 0.000 er 0.007] ------- [16:255 -1:255 32 0] 
r 1.388986552 _19_ MAC  --- 16 message 32 [0 ffffffff 10 800] [energy 998.749354 ei 1.243 es 0.000 et 0.001 er 0.007] ------- [16:255 -1:255 32 0] 
r 1.388986697 _9_ MAC  --- 16 message 32 [0 ffffffff 10 800] [energy 998.749300 ei 1.241 es 0.000 et 0.001 er 0.009] ------- [16:255 -1:255 32 0] 
r 1.388986750 _0_ MAC  --- 16 message 32 [0 ffffffff 10 800] [energy 998.749300 ei 1.241 es 0.000 et 0.001 er 0.009] ------- [16:255 -1:255 32 0] 
r 1.388986797 _23_ MAC  --- 16 message 32 [0 ffffffff 10 800] [energy 998.749660 ei 1.241 es 0.000 et 0.000 er 0.009] ------- [16:255 -1:255 32 0] 
r 1.388986810 _7_ MAC  --- 16 message 32 [0 ffffffff 10 800] [energy 998.749336 ei 1.242 es 0.000 et 0.001 er 0.007] ------- [16:255 -1:255 32 0] 
s 1.526570976 _23_ MAC  --- 17 message 90 [0 ffffffff 17 800] [energy 998.749660 ei 1.241 es 0.000 et 0.000 er 0.009] ------- [23:255 -1:255 32 0] 
N -t 1.526571 -n 15 -e 998.624808
N -t 1.526571 -n 0 -e 998.624808
N -t 1.526571 -n 9 -e 998.624808
N -t 1.526571 -n 14 -e 998.624790
N -t 1.526572 -n 16 -e 998.624879
N -t 1.526572 -n 20 -e 998.624789
N -t 1.526572 -n 21 -e 998.625221
N -t 1.526572 -n 18 -e 998.625203
N -t 1.526572 -n 19 -e 998.624861
N -t 1.526572 -n 24 -e 998.625149
N -t 1.526572 -n 7 -e 998.624843
N -t 1.526572 -n 13 -e 998.624789
N -t 1.526572 -n 2 -e 998.624879
N -t 1.526572 -n 17 -e 998.625149
N -t 1.526572 -n 5 -e 998.624807
N -t 1.526572 -n 3 -e 998.624843
N -t 1.526572 -n 10 -e 998.625167
N -t 1.526572 -n 6 -e 998.625239
N -t 1.526573 -n 1 -e 998.625185
N -t 1.526573 -n 12 -e 998.624843
N -t 1.526573 -n 4 -e 998.624879
r 1.527291054 _15_ MAC  --- 17 message 32 [0 ffffffff 17 800] [energy 998.624808 ei 1.365 es 0.000 et 0.001 er 0.009] ------- [23:255 -1:255 32 0] 
r 1.527291087 _0_ MAC  --- 17 message 32 [0 ffffffff 17 800] [energy 998.624808 ei 1.365 es 0.000 et 0.001 er 0.009] ------- [23:255 -1:255 32 0] 
r 1.527291201 _9_ MAC  --- 17 message 32 [0 ffffffff 17 800] [energy 998.624808 ei 1.365 es 0.000 et 0.001 er 0.009] ------- [23:255 -1:255 32 0] 
r 1.527291333 _14_ MAC  --- 17 message 32 [0 ffffffff 17 800] [energy 998.624790 ei 1.364 es 0.000 et 0.001 er 0.010] ------- [23:255 -1:255 32 0] 
r 1.527291760 _16_ MAC  --- 17 message 32 [0 ffffffff 17 800] [energy 998.624879 ei 1.367 es 0.000 et 0.001 er 0.007] ------- [23:255 -1:255 32 0] 
r 1.527291763 _20_ MAC  --- 17 message 32 [0 ffffffff 17 800] [energy 998.624789 ei 1.364 es 0.000 et 0.001 er 0.010] ------- [23:255 -1:255 32 0] 
r 1.527291800 _21_ MAC  --- 17 message 32 [0 ffffffff 17 800] [energy 998.625221 ei 1.367 es 0.000 et 0.000 er 0.008] ------- [23:255 -1:255 32 0] 
s 1.622128391 _10_ MAC  --- 18 message 90 [0 ffffffff a 800] [energy 998.625167 ei 1.365 es 0.000 et 0.000 er 0.010] ------- [10:255 -1:255 32 0] 
N -t 1.622129 -n 1 -e 998.539166
N -t 1.622129 -n 17 -e 998.539130
N -t 1.622129 -n 24 -e 998.539130
N -t 1.622129 -n 13 -e 998.538770
N -t 1.622129 -n 5 -e 998.538788
N -t 1.622129 -n 20 -e 998.538770
N -t 1.622130 -n 14 -e 998.538769
N -t 1.622130 -n 22 -e 998.538931
N -t 1.622130 -n 7 -e 998.538823
N -t 1.622130 -n 9 -e 998.538787
N -t 1.622130 -n 0 -e 998.538787
N -t 1.622130 -n 19 -e 998.538841
N -t 1.622130 -n 15 -e 998.538787
N -t 1.622130 -n 23 -e 998.538787
N -t 1.622130 -n 12 -e 998.538823
N -t 1.622130 -n 8 -e 998.538985
N -t 1.622130 -n 3 -e 998.538823
N -t 1.622130 -n 6 -e 998.539219
N -t 1.622130 -n 21 -e 998.539201
N -t 1.622130 -n 16 -e 998.538859
r 1.622848512 _1_ MAC  --- 18 message 32 [0 ffffffff a 800] [energy 998.539166 ei 1.451 es 0.000 et 0.000 er 0.010] ------- [10:255 -1:255 32 0] 
r 1.622848849 _17_ MAC  --- 18 message 32 [0 ffffffff a 800] [energy 998.539130 ei 1.450 es 0.000 et 0.000 er 0.011] ------- [10:255 -1:255 32 0] 
r 1.622848930 _24_ MAC  --- 18 message 32 [0 ffffffff a 800] [energy 998.539130 ei 1.450 es 0.000 et 0.000 er 0.011] ------- [10:255 -1:255 32 0] 
r 1.622849095 _13_ MAC  --- 18 message 32 [0 ffffffff a 800] [energy 998.538770 ei 1.450 es 0.000 et 0.001 er 0.011] ------- [10:255 -1:255 32 0] 
r 1.622849198 _5_ MAC  --- 18 message 32 [0 ffffffff a 800] [energy 998.538788 ei 1.450 es 0.000 et 0.001 er 0.010] ------- [10:255 -1:255 32 0] 
s 1.673482046 _1_ MAC  --- 19 message 90 [0 ffffffff 1 800] [energy 998.539166 ei 1.451 es 0.000 et 0.000 er 0.010] ------- [1:255 -1:255 32 0] 
N -t 1.673482 -n 10 -e 998.492552
N -t 1.673483 -n 17 -e 998.492894
N -t 1.673483 -n 24 -e 998.492894
N -t 1.673483 -n 13 -e 998.492533
N -t 1.673483 -n 5 -e 998.492551
N -t 1.673483 -n 20 -e 998.492533
N -t 1.673483 -n 22 -e 998.492695
N -t 1.673483 -n 14 -e 998.492533
N -t 1.673483 -n 7 -e 998.492587
N -t 1.673483 -n 9 -e 998.492551
N -t 1.673484 -n 19 -e 998.492605
N -t 1.673484 -n 0 -e 998.492551
N -t 1.673484 -n 15 -e 998.492551
N -t 1.673484 -n 8 -e 998.492749
N -t 1.673484 -n 23 -e 998.492551
N -t 1.673484 -n 12 -e 998.492587
N -t 1.673484 -n 6 -e 998.492983
N -t 1.673484 -n 3 -e 998.492587
N -t 1.673484 -n 21 -e 998.492965
r 1.674202167 _10_ MAC  --- 19 message 32 [0 ffffffff 1 800] [energy 998.492552 ei 1.496 es 0.000 et 0.001 er 0.011] ------- [1:255 -1:255 32 0] 
r 1.674202606 _17_ MAC  --- 19 message 32 [0 ffffffff 1 800] [energy 998.492894 ei 1.495 es 0.000 et 0.000 er 0.012] ------- [1:255 -1:255 32 0] 
r 1.674202704 _24_ MAC  --- 19 message 32 [0 ffffffff 1 800] [energy 998.492894 ei 1.495 es 0.000 et 0.000 er 0.012] ------- [1:255 -1:255 32 0] 
r 1.674202848 _13_ MAC  --- 19 message 32 [0 ffffffff 1 800] [energy 998.492533 ei 1.495 es 0.000 et 0.001 er 0.011] ------- [1:255 -1:255 32 0] 
s 1.680977177 _18_ MAC  --- 20 message 90 [0 ffffffff 12 800] [energy 998.625203 ei 1.366 es 0.000 et 0.000 er 0.009] ------- [18:255 -1:255 32 0] 
N -t 1.680977 -n 2 -e 998.485896
N -t 1.680978 -n 3 -e 998.485824
N -t 1.680978 -n 15 -e 998.485788
N -t 1.680978 -n 23 -e 998.485788
N -t 1.680978 -n 14 -e 998.485770
N -t 1.680978 -n 0 -e 998.485788
N -t 1.680978 -n 9 -e 998.485788