V -t * -v 1.0a5 -a 0
A -t * -n 1 -p 0 -o 0x7fffffff -c 30 -a 1
A -t * -h 1 -m 1073741823 -s 0
n -t * -a 4 -s 4 -S UP -v circle -c black -i black
n -t * -a 0 -s 0 -S UP -v circle -c black -i black
n -t * -a 1 -s 1 -S UP -v circle -c black -i black
n -t * -a 2 -s 2 -S UP -v circle -c black -i black
n -t * -a 3 -s 3 -S UP -v circle -c black -i black
l -t * -s 0 -d 1 -S UP -r 2000000 -D 0.02 -c black
l -t * -s 0 -d 2 -S UP -r 2000000 -D 0.02 -c black
l -t * -s 1 -d 3 -S UP -r 2000000 -D 0.02 -c black
l -t * -s 3 -d 2 -S UP -r 2000000 -D 0.02 -c black
l -t * -s 2 -d 1 -S UP -r 2000000 -D 0.02 -c black
+ -t 1 -s 0 -d 1 -p tcp -e 40 -c 0 -i 0 -a 0 -x {0.0 3.0 0 ------- null}
- -t 1 -s 0 -d 1 -p tcp -e 40 -c 0 -i 0 -a 0 -x {0.0 3.0 0 ------- null}
h -t 1 -s 0 -d 1 -p tcp -e 40 -c 0 -i 0 -a 0 -x {0.0 3.0 -1 ------- null}
r -t 1.02016 -s 0 -d 1 -p tcp -e 40 -c 0 -i 0 -a 0 -x {0.0 3.0 0 ------- null}
+ -t 1.02016 -s 1 -d 3 -p tcp -e 40 -c 0 -i 0 -a 0 -x {0.0 3.0 0 ------- null}
- -t 1.02016 -s 1 -d 3 -p tcp -e 40 -c 0 -i 0 -a 0 -x {0.0 3.0 0 ------- null}
h -t 1.02016 -s 1 -d 3 -p tcp -e 40 -c 0 -i 0 -a 0 -x {0.0 3.0 -1 ------- null}
r -t 1.04032 -s 1 -d 3 -p tcp -e 40 -c 0 -i 0 -a 0 -x {0.0 3.0 0 ------- null}
+ -t 1.04032 -s 3 -d 1 -p ack -e 40 -c 0 -i 1 -a 0 -x {3.0 0.0 0 ------- null}
- -t 1.04032 -s 3 -d 1 -p ack -e 40 -c 0 -i 1 -a 0 -x {3.0 0.0 0 ------- null}
h -t 1.04032 -s 3 -d 1 -p ack -e 40 -c 0 -i 1 -a 0 -x {3.0 0.0 -1 ------- null}
r -t 1.06048 -s 3 -d 1 -p ack -e 40 -c 0 -i 1 -a 0 -x {3.0 0.0 0 ------- null}
+ -t 1.06048 -s 1 -d 0 -p ack -e 40 -c 0 -i 1 -a 0 -x {3.0 0.0 0 ------- null}
- -t 1.06048 -s 1 -d 0 -p ack -e 40 -c 0 -i 1 -a 0 -x {3.0 0.0 0 ------- null}
h -t 1.06048 -s 1 -d 0 -p ack -e 40 -c 0 -i 1 -a 0 -x {3.0 0.0 -1 ------- null}
r -t 1.08064 -s 1 -d 0 -p ack -e 40 -c 0 -i 1 -a 0 -x {3.0 0.0 0 ------- null}
+ -t 1.08064 -s 0 -d 1 -p tcp -e 1040 -c 0 -i 2 -a 0 -x {0.0 3.0 1 ------- null}
- -t 1.08064 -s 0 -d 1 -p tcp -e 1040 -c 0 -i 2 -a 0 -x {0.0 3.0 1 ------- null}
h -t 1.08064 -s 0 -d 1 -p tcp -e 1040 -c 0 -i 2 -a 0 -x {0.0 3.0 -1 ------- null}
+ -t 1.08064 -s 0 -d 1 -p tcp -e 1040 -c 0 -i 3 -a 0 -x {0.0 3.0 2 ------- null}
- -t 1.0848 -s 0 -d 1 -p tcp -e 1040 -c 0 -i 3 -a 0 -x {0.0 3.0 2 ------- null}
h -t 1.0848 -s 0 -d 1 -p tcp -e 1040 -c 0 -i 3 -a 0 -x {0.0 3.0 -1 ------- null}
r -t 1.1048 -s 0 -d 1 -p tcp -e 1040 -c 0 -i 2 -a 0 -x {0.0 3.0 1 ------- null}
+ -t 1.1048 -s 1 -d 3 -p tcp -e 1040 -c 0 -i 2 -a 0 -x {0.0 3.0 1 ------- null}
- -t 1.1048 -s 1 -d 3 -p tcp -e 1040 -c 0 -i 2 -a 0 -x {0.0 3.0 1 ------- null}
h -t 1.1048 -s 1 -d 3 -p tcp -e 1040 -c 0 -i 2 -a 0 -x {0.0 3.0 -1 ------- null}
r -t 1.10896 -s 0 -d 1 -p tcp -e 1040 -c 0 -i 3 -a 0 -x {0.0 3.0 2 ------- null}
+ -t 1.10896 -s 1 -d 3 -p tcp -e 1040 -c 0 -i 3 -a 0 -x {0.0 3.0 2 ------- null}
- -t 1.10896 -s 1 -d 3 -p tcp -e 1040 -c 0 -i 3 -a 0 -x {0.0 3.0 2 ------- null}
h -t 1.10896 -s 1 -d 3 -p tcp -e 1040 -c 0 -i 3 -a 0 -x {0.0 3.0 -1 ------- null}
r -t 1.12896 -s 1 -d 3 -p tcp -e 1040 -c 0 -i 2 -a 0 -x {0.0 3.0 1 ------- null}
+ -t 1.12896 -s 3 -d 1 -p ack -e 40 -c 0 -i 4 -a 0 -x {3.0 0.0 1 ------- null}
- -t 1.12896 -s 3 -d 1 -p ack -e 40 -c 0 -i 4 -a 0 -x {3.0 0.0 1 ------- null}
h -t 1.12896 -s 3 -d 1 -p ack -e 40 -c 0 -i 4 -a 0 -x {3.0 0.0 -1 ------- null}
r -t 1.13312 -s 1 -d 3 -p tcp -e 1040 -c 0 -i 3 -a 0 -x {0.0 3.0 2 ------- null}
+ -t 1.13312 -s 3 -d 1 -p ack -e 40 -c 0 -i 5 -a 0 -x {3.0 0.0 2 ------- null}
- -t 1.13312 -s 3 -d 1 -p ack -e 40 -c 0 -i 5 -a 0 -x {3.0 0.0 2 ------- null}
h -t 1.13312 -s 3 -d 1 -p ack -e 40 -c 0 -i 5 -a 0 -x {3.0 0.0 -1 ------- null}
r -t 1.14912 -s 3 -d 1 -p ack -e 40 -c 0 -i 4 -a 0 -x {3.0 0.0 1 ------- null}
+ -t 1.14912 -s 1 -d 0 -p ack -e 40 -c 0 -i 4 -a 0 -x {3.0 0.0 1 ------- null}
- -t 1.14912 -s 1 -d 0 -p ack -e 40 -c 0 -i 4 -a 0 -x {3.0 0.0 1 ------- null}
h -t 1.14912 -s 1 -d 0 -p ack -e 40 -c 0 -i 4 -a 0 -x {3.0 0.0 -1 ------- null}
r -t 1.15328 -s 3 -d 1 -p ack -e 40 -c 0 -i 5 -a 0 -x {3.0 0.0 2 ------- null}
+ -t 1.15328 -s 1 -d 0 -p ack -e 40 -c 0 -i 5 -a 0 -x {3.0 0.0 2 ------- null}
- -t 1.15328 -s 1 -d 0 -p ack -e 40 -c 0 -i 5 -a 0 -x {3.0 0.0 2 ------- null}
h -t 1.15328 -s 1 -d 0 -p ack -e 40 -c 0 -i 5 -a 0 -x {3.0 0.0 -1 ------- null}
r -t 1.16928 -s 1 -d 0 -p ack -e 40 -c 0 -i 4 -a 0 -x {3.0 0.0 1 ------- null}
+ -t 1.16928 -s 0 -d 1 -p tcp -e 1040 -c 0 -i 6 -a 0 -x {0.0 3.0 3 ------- null}
- -t 1.16928 -s 0 -d 1 -p tcp -e 1040 -c 0 -i 6 -a 0 -x {0.0 3.0 3 ------- null}
h -t 1.16928 -s 0 -d 1 -p tcp -e 1040 -c 0 -i 6 -a 0 -x {0.0 3.0 -1 ------- null}
+ -t 1.16928 -s 0 -d 1 -p tcp -e 1040 -c 0 -i 7 -a 0 -x {0.0 3.0 4 ------- null}
r -t 1.17344 -s 1 -d 0 -p ack -e 40 -c 0 -i 5 -a 0 -x {3.0 0.0 2 ------- null}
+ -t 1.17344 -s 0 -d 1 -p tcp -e 1040 -c 0 -i 8 -a 0 -x {0.0 3.0 5 ------- null}
+ -t 1.17344 -s 0 -d 1 -p tcp -e 1040 -c 0 -i 9 -a 0 -x {0.0 3.0 6 ------- null}
- -t 1.17344 -s 0 -d 1 -p tcp -e 1040 -c 0 -i 7 -a 0 -x {0.0 3.0 4 ------- null}
h -t 1.17344 -s 0 -d 1 -p tcp -e 1040 -c 0 -i 7 -a 0 -x {0.0 3.0 -1 ------- null}
- -t 1.1776 -s 0 -d 1 -p tcp -e 1040 -c 0 -i 8 -a 0 -x {0.0 3.0 5 ------- null}
h -t 1.1776 -s 0 -d 1 -p tcp -e 1040 -c 0 -i 8 -a 0 -x {0.0 3.0 -1 ------- null}
- -t 1.18176 -s 0 -d 1 -p tcp -e 1040 -c 0 -i 9 -a 0 -x {0.0 3.0 6 ------- null}
h -t 1.18176 -s 0 -d 1 -p tcp -e 1040 -c 0 -i 9 -a 0 -x {0.0 3.0 -1 ------- null}
r -t 1.19344 -s 0 -d 1 -p tcp -e 1040 -c 0 -i 6 -a 0 -x {0.0 3.0 3 ------- null}
+ -t 1.19344 -s 1 -d 3 -p tcp -e 1040 -c 0 -i 6 -a 0 -x {0.0 3.0 3 ------- null}
- -t 1.19344 -s 1 -d 3 -p tcp -e 1040 -c 0 -i 6 -a 0 -x {0.0 3.0 3 ------- null}
h -t 1.19344 -s 1 -d 3 -p tcp -e 1040 -c 0 -i 6 -a 0 -x {0.0 3.0 -1 ------- null}
r -t 1.1976 -s 0 -d 1 -p tcp -e 1040 -c 0 -i 7 -a 0 -x {0.0 3.0 4 ------- null}
+ -t 1.1976 -s 1 -d 3 -p tcp -e 1040 -c 0 -i 7 -a 0 -x {0.0 3.0 4 ------- null}
- -t 1.1976 -s 1 -d 3 -p tcp -e 1040 -c 0 -i 7 -a 0 -x {0.0 3.0 4 ------- null}
h -t 1.1976 -s 1 -d 3 -p tcp -e 1040 -c 0 -i 7 -a 0 -x {0.0 3.0 -1 ------- null}
r -t 1.20176 -s 0 -d 1 -p tcp -e 1040 -c 0 -i 8 -a 0 -x {0.0 3.0 5 ------- null}
+ -t 1.20176 -s 1 -d 3 -p tcp -e 1040 -c 0 -i 8 -a 0 -x {0.0 3.0 5 ------- null}
- -t 1.20176 -s 1 -d 3 -p tcp -e 1040 -c 0 -i 8 -a 0 -x {0.0 3.0 5 ------- null}
h -t 1.20176 -s 1 -d 3 -p tcp -e 1040 -c 0 -i 8 -a 0 -x {0.0 3.0 -1 ------- null}
r -t 1.20592 -s 0 -d 1 -p tcp -e 1040 -c 0 -i 9 -a 0 -x {0.0 3.0 6 ------- null}
+ -t 1.20592 -s 1 -d 3 -p tcp -e 1040 -c 0 -i 9 -a 0 -x {0.0 3.0 6 ------- null}
- -t 1.20592 -s 1 -d 3 -p tcp -e 1040 -c 0 -i 9 -a 0 -x {0.0 3.0 6 ------- null}
h -t 1.20592 -s 1 -d 3 -p tcp -e 1040 -c 0 -i 9 -a 0 -x {0.0 3.0 -1 ------- null}
r -t 1.2176 -s 1 -d 3 -p tcp -e 1040 -c 0 -i 6 -a 0 -x {0.0 3.0 3 ------- null}
+ -t 1.2176 -s 3 -d 1 -p ack -e 40 -c 0 -i 10 -a 0 -x {3.0 0.0 3 ------- null}
- -t 1.2176 -s 3 -d 1 -p ack -e 40 -c 0 -i 10 -a 0 -x {3.0 0.0 3 ------- null}
h -t 1.2176 -s 3 -d 1 -p ack -e 40 -c 0 -i 10 -a 0 -x {3.0 0.0 -1 ------- null}
r -t 1.22176 -s 1 -d 3 -p tcp -e 1040 -c 0 -i 7 -a 0 -x {0.0 3.0 4 ------- null}
+ -t 1.22176 -s 3 -d 1 -p ack -e 40 -c 0 -i 11 -a 0 -x {3.0 0.0 4 ------- null}
- -t 1.22176 -s 3 -d 1 -p ack -e 40 -c 0 -i 11 -a 0 -x {3.0 0.0 4 ------- null}
h -t 1.22176 -s 3 -d 1 -p ack -e 40 -c 0 -i 11 -a 0 -x {3.0 0.0 -1 ------- null}
r -t 1.22592 -s 1 -d 3 -p tcp -e 1040 -c 0 -i 8 -a 0 -x {0.0 3.0 5 ------- null}
+ -t 1.22592 -s 3 -d 1 -p ack -e 40 -c 0 -i 12 -a 0 -x {3.0 0.0 5 ------- null}
- -t 1.22592 -s 3 -d 1 -p ack -e 40 -c 0 -i 12 -a 0 -x {3.0 0.0 5 ------- null}
h -t 1.22592 -s 3 -d 1 -p ack -e 40 -c 0 -i 12 -a 0 -x {3.0 0.0 -1 ------- null}
r -t 1.23008 -s 1 -d 3 -p tcp -e 1040 -c 0 -i 9 -a 0 -x {0.0 3.0 6 ------- null}
+ -t 1.23008 -s 3 -d 1 -p ack -e 40 -c 0 -i 13 -a 0 -x {3.0 0.0 6 ------- null}
- -t 1.23008 -s 3 -d 1 -p ack -e 40 -c 0 -i 13 -a 0 -x {3.0 0.0 6 ------- null}
h -t 1.23008 -s 3 -d 1 -p ack -e 40 -c 0 -i 13 -a 0 -x {3.0 0.0 -1 ------- null}
r -t 1.23776 -s 3 -d 1 -p ack -e 40 -c 0 -i 10 -a 0 -x {3.0 0.0 3 ------- null}
+ -t 1.23776 -s 1 -d 0 -p ack -e 40 -c 0 -i 10 -a 0 -x {3.0 0.0 3 ------- null}
- -t 1.23776 -s 1 -d 0 -p ack -e 40 -c 0 -i 10 -a 0 -x {3.0 0.0 3 ------- null}
h -t 1.23776 -s 1 -d 0 -p ack -e 40 -c 0 -i 10 -a 0 -x {3.0 0.0 -1 ------- null}
r -t 1.24192 -s 3 -d 1 -p ack -e 40 -c 0 -i 11 -a 0 -x {3.0 0.0 4 ------- null}
+ -t 1.24192 -s 1 -d 0 -p ack -e 40 -c 0 -i 11 -a 0 -x {3.0 0.0 4 ------- null}
- -t 1.24192 -s 1 -d 0 -p ack -e 40 -c 0 -i 11 -a 0 -x {3.0 0.0 4 ------- null}
h -t 1.24192 -s 1 -d 0 -p ack -e 40 -c 0 -i 11 -a 0 -x {3.0 0.0 -1 ------- null}
r -t 1.24608 -s 3 -d 1 -p ack -e 40 -c 0 -i 12 -a 0 -x {3.0 0.0 5 ------- null}
+ -t 1.24608 -s 1 -d 0 -p ack -e 40 -c 0 -i 12 -a 0 -x {3.0 0.0 5 ------- null}
- -t 1.24608 -s 1 -d 0 -p ack -e 40 -c 0 -i 12 -a 0 -x {3.0 0.0 5 ------- null}
h -t 1.24608 -s 1 -d 0 -p ack -e 40 -c 0 -i 12 -a 0 -x {3.0 0.0 -1 ------- null}
r -t 1.25024 -s 3 -d 1 -p ack -e 40 -c 0 -i 13 -a 0 -x {3.0 0.0 6 ------- null}
+ -t 1.25024 -s 1 -d 0 -p ack -e 40 -c 0 -i 13 -a 0 -x {3.0 0.0 6 ------- null}
- -t 1.25024 -s 1 -d 0 -p ack -e 40 -c 0 -i 13 -a 0 -x {3.0 0.0 6 ------- null}
h -t 1.25024 -s 1 -d 0 -p ack -e 40 -c 0 -i 13 -a 0 -x {3.0 0.0 -1 ------- null}
r -t 1.25792 -s 1 -d 0 -p ack -e 40 -c 0 -i 10 -a 0 -x {3.0 0.0 3 ------- null}
+ -t 1.25792 -s 0 -d 1 -p tcp -e 1040 -c 0 -i 14 -a 0 -x {0.0 3.0 7 ------- null}
- -t 1.25792 -s 0 -d 1 -p tcp -e 1040 -c 0 -i 14 -a 0 -x {0.0 3.0 7 ------- null}
h -t 1.25792 -s 0 -d 1 -p tcp -e 1040 -c 0 -i 14 -a 0 -x {0.0 3.0 -1 ------- null}
+ -t 1.25792 -s 0 -d 1 -p tcp -e 1040 -c 0 -i 15 -a 0 -x {0.0 3.0 8 ------- null}
r -t 1.26208 -s 1 -d 0 -p ack -e 40 -c 0 -i 11 -a 0 -x {3.0 0.0 4 ------- null}
+ -t 1.26208 -s 0 -d 1 -p tcp -e 1040 -c 0 -i 16 -a 0 -x {0.0 3.0 9 ------- null}
+ -t 1.26208 -s 0 -d 1 -p tcp -e 1040 -c 0 -i 17 -a 0 -x {0.0 3.0 10 ------- null}
- -t 1.26208 -s 0 -d 1 -p tcp -e 1040 -c 0 -i 15 -a 0 -x {0.0 3.0 8 ------- null}
h -t 1.26208 -s 0 -d 1 -p tcp -e 1040 -c 0 -i 15 -a 0 -x {0.0 3.0 -1 ------- null}
r -t 1.26624 -s 1 -d 0 -p ack -e 40 -c 0 -i 12 -a 0 -x {3.0 0.0 5 ------- null}
+ -t 1.26624 -s 0 -d 1 -p tcp -e 1040 -c 0 -i 18 -a 0 -x {0.0 3.0 11 ------- null}
+ -t 1.26624 -s 0 -d 1 -p tcp -e 1040 -c 0 -i 19 -a 0 -x {0.0 3.0 12 ------- null}
- -t 1.26624 -s 0 -d 1 -p tcp -e 1040 -c 0 -i 16 -a 0 -x {0.0 3.0 9 ------- null}
h -t 1.26624 -s 0 -d 1 -p tcp -e 1040 -c 0 -i 16 -a 0 -x {0.0 3.0 -1 ------- null}
r -t 1.2704 -s 1 -d 0 -p ack -e 40 -c 0 -i 13 -a 0 -x {3.0 0.0 6 ------- null}
+ -t 1.2704 -s 0 -d 1 -p tcp -e 1040 -c 0 -i 20 -a 0 -x {0.0 3.0 13 ------- null}
+ -t 1.2704 -s 0 -d 1 -p tcp -e 1040 -c 0 -i 21 -a 0 -x {0.0 3.0 14 ------- null}
- -t 1.2704 -s 0 -d 1 -p tcp -e 1040 -c 0 -i 17 -a 0 -x {0.0 3.0 10 ------- null}
h -t 1.2704 -s 0 -d 1 -p tcp -e 1040 -c 0 -i 17 -a 0 -x {0.0 3.0 -1 ------- null}
- -t 1.27456 -s 0 -d 1 -p tcp -e 1040 -c 0 -i 18 -a 0 -x {0.0 3.0 11 ------- null}
h -t 1.27456 -s 0 -d 1 -p tcp -e 1040 -c 0 -i 18 -a 0 -x {0.0 3.0 -1 ------- null}
- -t 1.27872 -s 0 -d 1 -p tcp -e 1040 -c 0 -i 19 -a 0 -x {0.0 3.0 12 ------- null}
h -t 1.27872 -s 0 -d 1 -p tcp -e 1040 -c 0 -i 19 -a 0 -x {0.0 3.0 -1 ------- null}
r -t 1.28208 -s 0 -d 1 -p tcp -e 1040 -c 0 -i 14 -a 0 -x {0.0 3.0 7 ------- null}
+ -t 1.28208 -s 1 -d 3 -p tcp -e 1040 -c 0 -i 14 -a 0 -x {0.0 3.0 7 ------- null}
- -t 1.28208 -s 1 -d 3 -p tcp -e 1040 -c 0 -i 14 -a 0 -x {0.0 3.0 7 ------- null}
h -t 1.28208 -s 1 -d 3 -p tcp -e 1040 -c 0 -i 14 -a 0 -x {0.0 3.0 -1 ------- null}
- -t 1.28288 -s 0 -d 1 -p tcp -e 1040 -c 0 -i 20 -a 0 -x {0.0 3.0 13 ------- null}
h -t 1.28288 -s 0 -d 1 -p tcp -e 1040 -c 0 -i 20 -a 0 -x {0.0 3.0 -1 ------- null}
r -t 1.28624 -s 0 -d 1 -p tcp -e 1040 -c 0 -i 15 -a 0 -x {0.0 3.0 8 ------- null}
+ -t 1.28624 -s 1 -d 3 -p tcp -e 1040 -c 0 -i 15 -a 0 -x {0.0 3.0 8 ------- null}
- -t 1.28624 -s 1 -d 3 -p tcp -e 1040 -c 0 -i 15 -a 0 -x {0.0 3.0 8 ------- null}
h -t 1.28624 -s 1 -d 3 -p tcp -e 1040 -c 0 -i 15 -a 0 -x {0.0 3.0 -1 ------- null}
- -t 1.28704 -s 0 -d 1 -p tcp -e 1040 -c 0 -i 21 -a 0 -x {0.0 3.0 14 ------- null}
h -t 1.28704 -s 0 -d 1 -p tcp -e 1040 -c 0 -i 21 -a 0 -x {0.0 3.0 -1 ------- null}
r -t 1.2904 -s 0 -d 1 -p tcp -e 1040 -c 0 -i 16 -a 0 -x {0.0 3.0 9 ------- null}
+ -t 1.2904 -s 1 -d 3 -p tcp -e 1040 -c 0 -i 16 -a 0 -x {0.0 3.0 9 ------- null}
- -t 1.2904 -s 1 -d 3 -p tcp -e 1040 -c 0 -i 16 -a 0 -x {0.0 3.0 9 ------- null}
h -t 1.2904 -s 1 -d 3 -p tcp -e 1040 -c 0 -i 16 -a 0 -x {0.0 3.0 -1 ------- null}
r -t 1.29456 -s 0 -d 1 -p tcp -e 1040 -c 0 -i 17 -a 0 -x {0.0 3.0 10 ------- null}
+ -t 1.29456 -s 1 -d 3 -p tcp -e 1040 -c 0 -i 17 -a 0 -x {0.0 3.0 10 ------- null}
- -t 1.29456 -s 1 -d 3 -p tcp -e 1040 -c 0 -i 17 -a 0 -x {0.0 3.0 10 ------- null}
h -t 1.29456 -s 1 -d 3 -p tcp -e 1040 -c 0 -i 17 -a 0 -x {0.0 3.0 -1 ------- null}
r -t 1.29872 -s 0 -d 1 -p tcp -e 1040 -c 0 -i 18 -a 0 -x {0.0 3.0 11 ------- null}
+ -t 1.29872 -s 1 -d 3 -p tcp -e 1040 -c 0 -i 18 -a 0 -x {0.0 3.0 11 ------- null}
- -t 1.29872 -s 1 -d 3 -p tcp -e 1040 -c 0 -i 18 -a 0 -x {0.0 3.0 11 ------- null}
h -t 1.29872 -s 1 -d 3 -p tcp -e 1040 -c 0 -i 18 -a 0 -x {0.0 3.0 -1 ------- null}
r -t 1.30288 -s 0 -d 1 -p tcp -e 1040 -c 0 -i 19 -a 0 -x {0.0 3.0 12 ------- null}
+ -t 1.30288 -s 1 -d 3 -p tcp -e 1040 -c 0 -i 19 -a 0 -x {0.0 3.0 12 ------- null}
- -t 1.30288 -s 1 -d 3 -p tcp -e 1040 -c 0 -i 19 -a 0 -x {0.0 3.0 12 ------- null}
h -t 1.30288 -s 1 -d 3 -p tcp -e 1040 -c 0 -i 19 -a 0 -x {0.0 3.0 -1 ------- null}
r -t 1.30624 -s 1 -d 3 -p tcp -e 1040 -c 0 -i 14 -a 0 -x {0.0 3.0 7 ------- null}
+ -t 1.30624 -s 3 -d 1 -p ack -e 40 -c 0 -i 22 -a 0 -x {3.0 0.0 7 ------- null}
- -t 1.30624 -s 3 -d 1 -p ack -e 40 -c 0 -i 22 -a 0 -x {3.0 0.0 7 ------- null}
h -t 1.30624 -s 3 -d 1 -p ack -e 40 -c 0 -i 22 -a 0 -x {3.0 0.0 -1 ------- null}
r -t 1.30704 -s 0 -d 1 -p tcp -e 1040 -c 0 -i 20 -a 0 -x {0.0 3.0 13 ------- null}
+ -t 1.30704 -s 1 -d 3 -p tcp -e 1040 -c 0 -i 20 -a 0 -x {0.0 3.0 13 ------- null}
- -t 1.30704 -s 1 -d 3 -p tcp -e 1040 -c 0 -i 20 -a 0 -x {0.0 3.0 13 ------- null}
h -t 1.30704 -s 1 -d 3 -p tcp -e 1040 -c 0 -i 20 -a 0 -x {0.0 3.0 -1 ------- null}
r -t 1.3104 -s 1 -d 3 -p tcp -e 1040 -c 0 -i 15 -a 0 -x {0.0 3.0 8 ------- null}
+ -t 1.3104 -s 3 -d 1 -p ack -e 40 -c 0 -i 23 -a 0 -x {3.0 0.0 8 ------- null}
- -t 1.3104 -s 3 -d 1 -p ack -e 40 -c 0 -i 23 -a 0 -x {3.0 0.0 8 ------- null}
h -t 1.3104 -s 3 -d 1 -p ack -e 40 -c 0 -i 23 -a 0 -x {3.0 0.0 -1 ------- null}
r -t 1.3112 -s 0 -d 1 -p tcp -e 1040 -c 0 -i 21 -a 0 -x {0.0 3.0 14 ------- null}
+ -t 1.3112 -s 1 -d 3 -p tcp -e 1040 -c 0 -i 21 -a 0 -x {0.0 3.0 14 ------- null}
- -t 1.3112 -s 1 -d 3 -p tcp -e 1040 -c 0 -i 21 -a 0 -x {0.0 3.0 14 ------- null}
h -t 1.3112 -s 1 -d 3 -p tcp -e 1040 -c 0 -i 21 -a 0 -x {0.0 3.0 -1 ------- null}
r -t 1.31456 -s 1 -d 3 -p tcp -e 1040 -c 0 -i 16 -a 0 -x {0.0 3.0 9 ------- null}
+ -t 1.31456 -s 3 -d 1 -p ack -e 40 -c 0 -i 24 -a 0 -x {3.0 0.0 9 ------- null}
- -t 1.31456 -s 3 -d 1 -p ack -e 40 -c 0 -i 24 -a 0 -x {3.0 0.0 9 ------- null}
h -t 1.31456 -s 3 -d 1 -p ack -e 40 -c 0 -i 24 -a 0 -x {3.0 0.0 -1 ------- null}
r -t 1.31872 -s 1 -d 3 -p tcp -e 1040 -c 0 -i 17 -a 0 -x {0.0 3.0 10 ------- null}
+ -t 1.31872 -s 3 -d 1 -p ack -e 40 -c 0 -i 25 -a 0 -x {3.0 0.0 10 ------- null}
- -t 1.31872 -s 3 -d 1 -p ack -e 40 -c 0 -i 25 -a 0 -x {3.0 0.0 10 ------- null}
h -t 1.31872 -s 3 -d 1 -p ack -e 40 -c 0 -i 25 -a 0 -x {3.0 0.0 -1 ------- null}
r -t 1.32288 -s 1 -d 3 -p tcp -e 1040 -c 0 -i 18 -a 0 -x {0.0 3.0 11 ------- null}
+ -t 1.32288 -s 3 -d 1 -p ack -e 40 -c 0 -i 26 -a 0 -x {3.0 0.0 11 ------- null}
- -t 1.32288 -s 3 -d 1 -p ack -e 40 -c 0 -i 26 -a 0 -x {3.0 0.0 11 ------- null}
h -t 1.32288 -s 3 -d 1 -p ack -e 40 -c 0 -i 26 -a 0 -x {3.0 0.0 -1 ------- null}
r -t 1.3264 -s 3 -d 1 -p ack -e 40 -c 0 -i 22 -a 0 -x {3.0 0.0 7 ------- null}
+ -t 1.3264 -s 1 -d 0 -p ack -e 40 -c 0 -i 22 -a 0 -x {3.0 0.0 7 ------- null}
- -t 1.3264 -s 1 -d 0 -p ack -e 40 -c 0 -i 22 -a 0 -x {3.0 0.0 7 ------- null}
h -t 1.3264 -s 1 -d 0 -p ack -e 40 -c 0 -i 22 -a 0 -x {3.0 0.0 -1 ------- null}
r -t 1.32704 -s 1 -d 3 -p tcp -e 1040 -c 0 -i 19 -a 0 -x {0.0 3.0 12 ------- null}
+ -t 1.32704 -s 3 -d 1 -p ack -e 40 -c 0 -i 27 -a 0 -x {3.0 0.0 12 ------- null}
- -t 1.32704 -s 3 -d 1 -p ack -e 40 -c 0 -i 27 -a 0 -x {3.0 0.0 12 ------- null}
h -t 1.32704 -s 3 -d 1 -p ack -e 40 -c 0 -i 27 -a 0 -x {3.0 0.0 -1 ------- null}
r -t 1.33056 -s 3 -d 1 -p ack -e 40 -c 0 -i 23 -a 0 -x {3.0 0.0 8 ------- null}
+ -t 1.33056 -s 1 -d 0 -p ack -e 40 -c 0 -i 23 -a 0 -x {3.0 0.0 8 ------- null}
- -t 1.33056 -s 1 -d 0 -p ack -e 40 -c 0 -i 23 -a 0 -x {3.0 0.0 8 ------- null}
h -t 1.33056 -s 1 -d 0 -p ack -e 40 -c 0 -i 23 -a 0 -x {3.0 0.0 -1 ------- null}
r -t 1.3312 -s 1 -d 3 -p tcp -e 1040 -c 0 -i 20 -a 0 -x {0.0 3.0 13 ------- null}
+ -t 1.3312 -s 3 -d 1 -p ack -e 40 -c 0 -i 28 -a 0 -x {3.0 0.0 13 ------- null}
- -t 1.3312 -s 3 -d 1 -p ack -e 40 -c 0 -i 28 -a 0 -x {3.0 0.0 13 ------- null}
h -t 1.3312 -s 3 -d 1 -p ack -e 40 -c 0 -i 28 -a 0 -x {3.0 0.0 -1 ------- null}
r -t 1.33472 -s 3 -d 1 -p ack -e 40 -c 0 -i 24 -a 0 -x {3.0 0.0 9 ------- null}
+ -t 1.33472 -s 1 -d 0 -p ack -e 40 -c 0 -i 24 -a 0 -x {3.0 0.0 9 ------- null}
- -t 1.33472 -s 1 -d 0 -p ack -e 40 -c 0 -i 24 -a 0 -x {3.0 0.0 9 ------- null}
h -t 1.33472 -s 1 -d 0 -p ack -e 40 -c 0 -i 24 -a 0 -x {3.0 0.0 -1 ------- null}
r -t 1.33536 -s 1 -d 3 -p tcp -e 1040 -c 0 -i 21 -a 0 -x {0.0 3.0 14 ------- null}
+ -t 1.33536 -s 3 -d 1 -p ack -e 40 -c 0 -i 29 -a 0 -x {3.0 0.0 14 ------- null}
- -t 1.33536 -s 3 -d 1 -p ack -e 40 -c 0 -i 29 -a 0 -x {3.0 0.0 14 ------- null}
h -t 1.33536 -s 3 -d 1 -p ack -e 40 -c 0 -i 29 -a 0 -x {3.0 0.0 -1 ------- null}
r -t 1.33888 -s 3 -d 1 -p ack -e 40 -c 0 -i 25 -a 0 -x {3.0 0.0 10 ------- null}
+ -t 1.33888 -s 1 -d 0 -p ack -e 40 -c 0 -i 25 -a 0 -x {3.0 0.0 10 ------- null}
- -t 1.33888 -s 1 -d 0 -p ack -e 40 -c 0 -i 25 -a 0 -x {3.0 0.0 10 ------- null}
h -t 1.33888 -s 1 -d 0 -p ack -e 40 -c 0 -i 25 -a 0 -x {3.0 0.0 -1 ------- null}
r -t 1.34304 -s 3 -d 1 -p ack -e 40 -c 0 -i 26 -a 0 -x {3.0 0.0 11 ------- null}
+ -t 1.34304 -s 1 -d 0 -p ack -e 40 -c 0 -i 26 -a 0 -x {3.0 0.0 11 ------- null}
- -t 1.34304 -s 1 -d 0 -p ack -e 40 -c 0 -i 26 -a 0 -x {3.0 0.0 11 ------- null}
h -t 1.34304 -s 1 -d 0 -p ack -e 40 -c 0 -i 26 -a 0 -x {3.0 0.0 -1 ------- null}
r -t 1.34656 -s 1 -d 0 -p ack -e 40 -c 0 -i 22 -a 0 -x {3.0 0.0 7 ------- null}
+ -t 1.34656 -s 0 -d 1 -p tcp -e 1040 -c 0 -i 30 -a 0 -x {0.0 3.0 15 ------- null}
- -t 1.34656 -s 0 -d 1 -p tcp -e 1040 -c 0 -i 30 -a 0 -x {0.0 3.0 15 ------- null}
h -t 1.34656 -s 0 -d 1 -p tcp -e 1040 -c 0 -i 30 -a 0 -x {0.0 3.0 -1 ------- null}
+ -t 1.34656 -s 0 -d 1 -p tcp -e 1040 -c 0 -i 31 -a 0 -x {0.0 3.0 16 ------- null}
r -t 1.3472 -s 3 -d 1 -p ack -e 40 -c 0 -i 27 -a 0 -x {3.0 0.0 12 ------- null}
+ -t 1.3472 -s 1 -d 0 -p ack -e 40 -c 0 -i 27 -a 0 -x {3.0 0.0 12 ------- null}
- -t 1.3472 -s 1 -d 0 -p ack -e 40 -c 0 -i 27 -a 0 -x {3.0 0.0 12 ------- null}
h -t 1.3472 -s 1 -d 0 -p ack -e 40 -c 0 -i 27 -a 0 -x {3.0 0.0 -1 ------- null}
r -t 1.35072 -s 1 -d 0 -p ack -e 40 -c 0 -i 23 -a 0 -x {3.0 0.0 8 ------- null}
+ -t 1.35072 -s 0 -d 1 -p tcp -e 1040 -c 0 -i 32 -a 0 -x {0.0 3.0 17 ------- null}
+ -t 1.35072 -s 0 -d 1 -p tcp -e 1040 -c 0 -i 33 -a 0 -x {0.0 3.0 18 ------- null}
- -t 1.35072 -s 0 -d 1 -p tcp -e 1040 -c 0 -i 31 -a 0 -x {0.0 3.0 16 ------- null}
h -t 1.35072 -s 0 -d 1 -p tcp -e 1040 -c 0 -i 31 -a 0 -x {0.0 3.0 -1 ------- null}
r -t 1.35136 -s 3 -d 1 -p ack -e 40 -c 0 -i 28 -a 0 -x {3.0 0.0 13 ------- null}
+ -t 1.35136 -s 1 -d 0 -p ack -e 40 -c 0 -i 28 -a 0 -x {3.0 0.0 13 ------- null}
- -t 1.35136 -s 1 -d 0 -p ack -e 40 -c 0 -i 28 -a 0 -x {3.0 0.0 13 ------- null}
h -t 1.35136 -s 1 -d 0 -p ack -e 40 -c 0 -i 28 -a 0 -x {3.0 0.0 -1 ------- null}
r -t 1.35488 -s 1 -d 0 -p ack -e 40 -c 0 -i 24 -a 0 -x {3.0 0.0 9 ------- null}
+ -t 1.35488 -s 0 -d 1 -p tcp -e 1040 -c 0 -i 34 -a 0 -x {0.0 3.0 19 ------- null}
+ -t 1.35488 -s 0 -d 1 -p tcp -e 1040 -c 0 -i 35 -a 0 -x {0.0 3.0 20 ------- null}
- -t 1.35488 -s 0 -d 1 -p tcp -e 1040 -c 0 -i 32 -a 0 -x {0.0 3.0 17 ------- null}
h -t 1.35488 -s 0 -d 1 -p tcp -e 1040 -c 0 -i 32 -a 0 -x {0.0 3.0 -1 ------- null}
r -t 1.35552 -s 3 -d 1 -p ack -e 40 -c 0 -i 29 -a 0 -x {3.0 0.0 14 ------- null}
+ -t 1.35552 -s 1 -d 0 -p ack -e 40 -c 0 -i 29 -a 0 -x {3.0 0.0 14 ------- null}
- -t 1.35552 -s 1 -d 0 -p ack -e 40 -c 0 -i 29 -a 0 -x {3.0 0.0 14 ------- null}
h -t 1.35552 -s 1 -d 0 -p ack -e 40 -c 0 -i 29 -a 0 -x {3.0 0.0 -1 ------- null}
r -t 1.35904 -s 1 -d 0 -p ack -e 40 -c 0 -i 25 -a 0 -x {3.0 0.0 10 ------- null}
+ -t 1.35904 -s 0 -d 1 -p tcp -e 1040 -c 0 -i 36 -a 0 -x {0.0 3.0 21 ------- null}
+ -t 1.35904 -s 0 -d 1 -p tcp -e 1040 -c 0 -i 37 -a 0 -x {0.0 3.0 22 ------- null}
- -t 1.35904 -s 0 -d 1 -p tcp -e 1040 -c 0 -i 33 -a 0 -x {0.0 3.0 18 ------- null}
h -t 1.35904 -s 0 -d 1 -p tcp -e 1040 -c 0 -i 33 -a 0 -x {0.0 3.0 -1 ------- null}
r -t 1.3632 -s 1 -d 0 -p ack -e 40 -c 0 -i 26 -a 0 -x {3.0 0.0 11 ------- null}
+ -t 1.3632 -s 0 -d 1 -p tcp -e 1040 -c 0 -i 38 -a 0 -x {0.0 3.0 23 ------- null}
+ -t 1.3632 -s 0 -d 1 -p tcp -e 1040 -c 0 -i 39 -a 0 -x {0.0 3.0 24 ------- null}
- -t 1.3632 -s 0 -d 1 -p tcp -e 1040 -c 0 -i 34 -a 0 -x {0.0 3.0 19 ------- null}
h -t 1.3632 -s 0 -d 1 -p tcp -e 1040 -c 0 -i 34 -a 0 -x {0.0 3.0 -1 ------- null}
r -t 1.36736 -s 1 -d 0 -p ack -e 40 -c 0 -i 27 -a 0 -x {3.0 0.0 12 ------- null}
+ -t 1.36736 -s 0 -d 1 -p tcp -e 1040 -c 0 -i 40 -a 0 -x {0.0 3.0 25 ------- null}
+ -t 1.36736 -s 0 -d 1 -p tcp -e 1040 -c 0 -i 41 -a 0 -x {0.0 3.0 26 ------- null}
- -t 1.36736 -s 0 -d 1 -p tcp -e 1040 -c 0 -i 35 -a 0 -x {0.0 3.0 20 ------- null}
h -t 1.36736 -s 0 -d 1 -p tcp -e 1040 -c 0 -i 35 -a 0 -x {0.0 3.0 -1 ------- null}
r -t 1.37072 -s 0 -d 1 -p tcp -e 1040 -c 0 -i 30 -a 0 -x {0.0 3.0 15 ------- null}
+ -t 1.37072 -s 1 -d 3 -p tcp -e 1040 -c 0 -i 30 -a 0 -x {0.0 3.0 15 ------- null}
- -t 1.37072 -s 1 -d 3 -p tcp -e 1040 -c 0 -i 30 -a 0 -x {0.0 3.0 15 ------- null}
h -t 1.37072 -s 1 -d 3 -p tcp -e 1040 -c 0 -i 30 -a 0 -x {0.0 3.0 -1 ------- null}
r -t 1.37152 -s 1 -d 0 -p ack -e 40 -c 0 -i 28 -a 0 -x {3.0 0.0 13 ------- null}
+ -t 1.37152 -s 0 -d 1 -p tcp -e 1040 -c 0 -i 42 -a 0 -x {0.0 3.0 27 ------- null}
+ -t 1.37152 -s 0 -d 1 -p tcp -e 1040 -c 0 -i 43 -a 0 -x {0.0 3.0 28 ------- null}
- -t 1.37152 -s 0 -d 1 -p tcp -e 1040 -c 0 -i 36 -a 0 -x {0.0 3.0 21 ------- null}
h -t 1.37152 -s 0 -d 1 -p tcp -e 1040 -c 0 -i 36 -a 0 -x {0.0 3.0 -1 ------- null}
r -t 1.37488 -s 0 -d 1 -p tcp -e 1040 -c 0 -i 31 -a 0 -x {0.0 3.0 16 ------- null}
+ -t 1.37488 -s 1 -d 3 -p tcp -e 1040 -c 0 -i 31 -a 0 -x {0.0 3.0 16 ------- null}
- -t 1.37488 -s 1 -d 3 -p tcp -e 1040 -c 0 -i 31 -a 0 -x {0.0 3.0 16 ------- null}
h -t 1.37488 -s 1 -d 3 -p tcp -e 1040 -c 0 -i 31 -a 0 -x {0.0 3.0 -1 ------- null}
r -t 1.37568 -s 1 -d 0 -p ack -e 40 -c 0 -i 29 -a 0 -x {3.0 0.0 14 ------- null}
+ -t 1.37568 -s 0 -d 1 -p tcp -e 1040 -c 0 -i 44 -a 0 -x {0.0 3.0 29 ------- null}
+ -t 1.37568 -s 0 -d 1 -p tcp -e 1040 -c 0 -i 45 -a 0 -x {0.0 3.0 30 ------- null}
- -t 1.37568 -s 0 -d 1 -p tcp -e 1040 -c 0 -i 37 -a 0 -x {0.0 3.0 22 ------- null}
h -t 1.37568 -s 0 -d 1 -p tcp -e 1040 -c 0 -i 37 -a 0 -x {0.0 3.0 -1 ------- null}
r -t 1.37904 -s 0 -d 1 -p tcp -e 1040 -c 0 -i 32 -a 0 -x {0.0 3.0 17 ------- null}
+ -t 1.37904 -s 1 -d 3 -p tcp -e 1040 -c 0 -i 32 -a 0 -x {0.0 3.0 17 ------- null}
- -t 1.37904 -s 1 -d 3 -p tcp -e 1040 -c 0 -i 32 -a 0 -x {0.0 3.0 17 ------- null}
h -t 1.37904 -s 1 -d 3 -p tcp -e 1040 -c 0 -i 32 -a 0 -x {0.0 3.0 -1 ------- null}
- -t 1.37984 -s 0 -d 1 -p tcp -e 1040 -c 0 -i 38 -a 0 -x {0.0 3.0 23 ------- null}
h -t 1.37984 -s 0 -d 1 -p tcp -e 1040 -c 0 -i 38 -a 0 -x {0.0 3.0 -1 ------- null}
r -t 1.3832 -s 0 -d 1 -p tcp -e 1040 -c 0 -i 33 -a 0 -x {0.0 3.0 18 ------- null}
+ -t 1.3832 -s 1 -d 3 -p tcp -e 1040 -c 0 -i 33 -a 0 -x {0.0 3.0 18 ------- null}
- -t 1.3832 -s 1 -d 3 -p tcp -e 1040 -c 0 -i 33 -a 0 -x {0.0 3.0 18 ------- null}
h -t 1.3832 -s 1 -d 3 -p tcp -e 1040 -c 0 -i 33 -a 0 -x {0.0 3.0 -1 ------- null}
- -t 1.384 -s 0 -d 1 -p tcp -e 1040 -c 0 -i 39 -a 0 -x {0.0 3.0 24 ------- null}
h -t 1.384 -s 0 -d 1 -p tcp -e 1040 -c 0 -i 39 -a 0 -x {0.0 3.0 -1 ------- null}
r -t 1.38736 -s 0 -d 1 -p tcp -e 1040 -c 0 -i 34 -a 0 -x {0.0 3.0 19 ------- null}
+ -t 1.38736 -s 1 -d 3 -p tcp -e 1040 -c 0 -i 34 -a 0 -x {0.0 3.0 19 ------- null}
- -t 1.38736 -s 1 -d 3 -p tcp -e 1040 -c 0 -i 34 -a 0 -x {0.0 3.0 19 ------- null}
h -t 1.38736 -s 1 -d 3 -p tcp -e 1040 -c 0 -i 34 -a 0 -x {0.0 3.0 -1 ------- null}
- -t 1.38816 -s 0 -d 1 -p tcp -e 1040 -c 0 -i 40 -a 0 -x {0.0 3.0 25 ------- null}
h -t 1.38816 -s 0 -d 1 -p tcp -e 1040 -c 0 -i 40 -a 0 -x {0.0 3.0 -1 ------- null}
r -t 1.39152 -s 0 -d 1 -p tcp -e 1040 -c 0 -i 35 -a 0 -x {0.0 3.0 20 ------- null}
+ -t 1.39152 -s 1 -d 3 -p tcp -e 1040 -c 0 -i 35 -a 0 -x {0.0 3.0 20 ------- null}
- -t 1.39152 -s 1 -d 3 -p tcp -e 1040 -c 0 -i 35 -a 0 -x {0.0 3.0 20 ------- null}
h -t 1.39152 -s 1 -d 3 -p tcp -e 1040 -c 0 -i 35 -a 0 -x {0.0 3.0 -1 ------- null}
- -t 1.39232 -s 0 -d 1 -p tcp -e 1040 -c 0 -i 41 -a 0 -x {0.0 3.0 26 ------- null}
h -t 1.39232 -s 0 -d 1 -p tcp -e 1040 -c 0 -i 41 -a 0 -x {0.0 3.0 -1 ------- null}
r -t 1.39488 -s 1 -d 3 -p tcp -e 1040 -c 0 -i 30 -a 0 -x {0.0 3.0 15 ------- null}
+ -t 1.39488 -s 3 -d 1 -p ack -e 40 -c 0 -i 46 -a 0 -x {3.0 0.0 15 ------- null}
- -t 1.39488 -s 3 -d 1 -p ack -e 40 -c 0 -i 46 -a 0 -x {3.0 0.0 15 ------- null}
h -t 1.39488 -s 3 -d 1 -p ack -e 40 -c 0 -i 46 -a 0 -x {3.0 0.0 -1 ------- null}
r -t 1.39568 -s 0 -d 1 -p tcp -e 1040 -c 0 -i 36 -a 0 -x {0.0 3.0 21 ------- null}
+ -t 1.39568 -s 1 -d 3 -p tcp -e 1040 -c 0 -i 36 -a 0 -x {0.0 3.0 21 ------- null}
- -t 1.39568 -s 1 -d 3 -p tcp -e 1040 -c 0 -i 36 -a 0 -x {0.0 3.0 21 ------- null}
h -t 1.39568 -s 1 -d 3 -p tcp -e 1040 -c 0 -i 36 -a 0 -x {0.0 3.0 -1 ------- null}
- -t 1.39648 -s 0 -d 1 -p tcp -e 1040 -c 0 -i 42 -a 0 -x {0.0 3.0 27 ------- null}
h -t 1.39648 -s 0 -d 1 -p tcp -e 1040 -c 0 -i 42 -a 0 -x {0.0 3.0 -1 ------- null}
r -t 1.39904 -s 1 -d 3 -p tcp -e 1040 -c 0 -i 31 -a 0 -x {0.0 3.0 16 ------- null}
+ -t 1.39904 -s 3 -d 1 -p ack -e 40 -c 0 -i 47 -a 0 -x {3.0 0.0 16 ------- null}
- -t 1.39904 -s 3 -d 1 -p ack -e 40 -c 0 -i 47 -a 0 -x {3.0 0.0 16 ------- null}
h -t 1.39904 -s 3 -d 1 -p ack -e 40 -c 0 -i 47 -a 0 -x {3.0 0.0 -1 ------- null}
r -t 1.39984 -s 0 -d 1 -p tcp -e 1040 -c 0 -i 37 -a 0 -x {0.0 3.0 22 ------- null}
+ -t 1.39984 -s 1 -d 3 -p tcp -e 1040 -c 0 -i 37 -a 0 -x {0.0 3.0 22 ------- null}
- -t 1.39984 -s 1 -d 3 -p tcp -e 1040 -c 0 -i 37 -a 0 -x {0.0 3.0 22 ------- null}
h -t 1.39984 -s 1 -d 3 -p tcp -e 1040 -c 0 -i 37 -a 0 -x {0.0 3.0 -1 ------- null}
- -t 1.40064 -s 0 -d 1 -p tcp -e 1040 -c 0 -i 43 -a 0 -x {0.0 3.0 28 ------- null}
h -t 1.40064 -s 0 -d 1 -p tcp -e 1040 -c 0 -i 43 -a 0 -x {0.0 3.0 -1 ------- null}
r -t 1.4032 -s 1 -d 3 -p tcp -e 1040 -c 0 -i 32 -a 0 -x {0.0 3.0 17 ------- null}
+ -t 1.4032 -s 3 -d 1 -p ack -e 40 -c 0 -i 48 -a 0 -x {3.0 0.0 17 ------- null}
- -t 1.4032 -s 3 -d 1 -p ack -e 40 -c 0 -i 48 -a 0 -x {3.0 0.0 17 ------- null}
h -t 1.4032 -s 3 -d 1 -p ack -e 40 -c 0 -i 48 -a 0 -x {3.0 0.0 -1 ------- null}
r -t 1.404 -s 0 -d 1 -p tcp -e 1040 -c 0 -i 38 -a 0 -x {0.0 3.0 23 ------- null}
+ -t 1.404 -s 1 -d 3 -p tcp -e 1040 -c 0 -i 38 -a 0 -x {0.0 3.0 23 ------- null}
- -t 1.404 -s 1 -d 3 -p tcp -e 1040 -c 0 -i 38 -a 0 -x {0.0 3.0 23 ------- null}
h -t 1.404 -s 1 -d 3 -p tcp -e 1040 -c 0 -i 38 -a 0 -x {0.0 3.0 -1 ------- null}
- -t 1.4048 -s 0 -d 1 -p tcp -e 1040 -c 0 -i 44 -a 0 -x {0.0 3.0 29 ------- null}
h -t 1.4048 -s 0 -d 1 -p tcp -e 1040 -c 0 -i 44 -a 0 -x {0.0 3.0 -1 ------- null}
r -t 1.40736 -s 1 -d 3 -p tcp -e 1040 -c 0 -i 33 -a 0 -x {0.0 3.0 18 ------- null}
+ -t 1.40736 -s 3 -d 1 -p ack -e 40 -c 0 -i 49 -a 0 -x {3.0 0.0 18 ------- null}
- -t 1.40736 -s 3 -d 1 -p ack -e 40 -c 0 -i 49 -a 0 -x {3.0 0.0 18 ------- null}
h -t 1.40736 -s 3 -d 1 -p ack -e 40 -c 0 -i 49 -a 0 -x {3.0 0.0 -1 ------- null}
r -t 1.40816 -s 0 -d 1 -p tcp -e 1040 -c 0 -i 39 -a 0 -x {0.0 3.0 24 ------- null}
+ -t 1.40816 -s 1 -d 3 -p tcp -e 1040 -c 0 -i 39 -a 0 -x {0.0 3.0 24 ------- null}
- -t 1.40816 -s 1 -d 3 -p tcp -e 1040 -c 0 -i 39 -a 0 -x {0.0 3.0 24 ------- null}
h -t 1.40816 -s 1 -d 3 -p tcp -e 1040 -c 0 -i 39 -a 0 -x {0.0 3.0 -1 ------- null}
- -t 1.40896 -s 0 -d 1 -p tcp -e 1040 -c 0 -i 45 -a 0 -x {0.0 3.0 30 ------- null}
h -t 1.40896 -s 0 -d 1 -p tcp -e 1040 -c 0 -i 45 -a 0 -x {0.0 3.0 -1 ------- null}
r -t 1.41152 -s 1 -d 3 -p tcp -e 1040 -c 0 -i 34 -a 0 -x {0.0 3.0 19 ------- null}
+ -t 1.41152 -s 3 -d 1 -p ack -e 40 -c 0 -i 50 -a 0 -x {3.0 0.0 19 ------- null}
- -t 1.41152 -s 3 -d 1 -p ack -e 40 -c 0 -i 50 -a 0 -x {3.0 0.0 19 ------- null}
h -t 1.41152 -s 3 -d 1 -p ack -e 40 -c 0 -i 50 -a 0 -x {3.0 0.0 -1 ------- null}
r -t 1.41232 -s 0 -d 1 -p tcp -e 1040 -c 0 -i 40 -a 0 -x {0.0 3.0 25 ------- null}
+ -t 1.41232 -s 1 -d 3 -p tcp -e 1040 -c 0 -i 40 -a 0 -x {0.0 3.0 25 ------- null}
- -t 1.41232 -s 1 -d 3 -p tcp -e 1040 -c 0 -i 40 -a 0 -x {0.0 3.0 25 ------- null}
h -t 1.41232 -s 1 -d 3 -p tcp -e 1040 -c 0 -i 40 -a 0 -x {0.0 3.0 -1 ------- null}
r -t 1.41504 -s 3 -d 1 -p ack -e 40 -c 0 -i 46 -a 0 -x {3.0 0.0 15 ------- null}
+ -t 1.41504 -s 1 -d 0 -p ack -e 40 -c 0 -i 46 -a 0 -x {3.0 0.0 15 ------- null}
- -t 1.41504 -s 1 -d 0 -p ack -e 40 -c 0 -i 46 -a 0 -x {3.0 0.0 15 ------- null}
h -t 1.41504 -s 1 -d 0 -p ack -e 40 -c 0 -i 46 -a 0 -x {3.0 0.0 -1 ------- null}
r -t 1.41568 -s 1 -d 3 -p tcp -e 1040 -c 0 -i 35 -a 0 -x {0.0 3.0 20 ------- null}
+ -t 1.41568 -s 3 -d 1 -p ack -e 40 -c 0 -i 51 -a 0 -x {3.0 0.0 20 ------- null}
- -t 1.41568 -s 3 -d 1 -p ack -e 40 -c 0 -i 51 -a 0 -x {3.0 0.0 20 ------- null}
h -t 1.41568 -s 3 -d 1 -p ack -e 40 -c 0 -i 51 -a 0 -x {3.0 0.0 -1 ------- null}
r -t 1.41648 -s 0 -d 1 -p tcp -e 1040 -c 0 -i 41 -a 0 -x {0.0 3.0 26 ------- null}