s 0.027921950 _24_ MAC  --- 0 message 90 [0 ffffffff 18 800] [energy 1000.000000 ei 0.000 es 0.000 et 0.000 er 0.000] ------- [24:255 -1:255 32 0] 
N -t 0.027922 -n 5 -e 999.974204
N -t 0.027922 -n 0 -e 999.974204
N -t 0.027923 -n 23 -e 999.974204
N -t 0.027923 -n 1 -e 999.974204
N -t 0.027923 -n 18 -e 999.974203
N -t 0.027923 -n 12 -e 999.974203
N -t 0.027923 -n 14 -e 999.974203
N -t 0.027923 -n 19 -e 999.974203
N -t 0.027923 -n 10 -e 999.974203
N -t 0.027923 -n 21 -e 999.974203
N -t 0.027923 -n 11 -e 999.974203
N -t 0.027923 -n 22 -e 999.974203
N -t 0.027923 -n 2 -e 999.974203
N -t 0.027924 -n 7 -e 999.974203
N -t 0.027924 -n 20 -e 999.974203
N -t 0.027924 -n 15 -e 999.974203
r 0.028642273 _5_ MAC  --- 0 message 32 [0 ffffffff 18 800] [energy 999.974204 ei 0.025 es 0.000 et 0.000 er 0.001] ------- [24:255 -1:255 32 0] 
r 0.028642368 _0_ MAC  --- 0 message 32 [0 ffffffff 18 800] [energy 999.974204 ei 0.025 es 0.000 et 0.000 er 0.001] ------- [24:255 -1:255 32 0] 
r 0.028642602 _23_ MAC  --- 0 message 32 [0 ffffffff 18 800] [energy 999.974204 ei 0.025 es 0.000 et 0.000 er 0.001] ------- [24:255 -1:255 32 0] 
r 0.028642661 _1_ MAC  --- 0 message 32 [0 ffffffff 18 800] [energy 999.974204 ei 0.025 es 0.000 et 0.000 er 0.001] ------- [24:255 -1:255 32 0] 
s 0.119450192 _23_ MAC  --- 1 message 90 [0 ffffffff 17 800] [energy 999.974204 ei 0.025 es 0.000 et 0.000 er 0.001] ------- [23:255 -1:255 32 0] 
N -t 0.119451 -n 19 -e 999.891810
N -t 0.119451 -n 5 -e 999.891810
N -t 0.119451 -n 24 -e 999.891450
N -t 0.119451 -n 18 -e 999.891810
N -t 0.119451 -n 11 -e 999.891810
N -t 0.119451 -n 1 -e 999.891810
N -t 0.119451 -n 0 -e 999.891810
N -t 0.119451 -n 21 -e 999.891810
N -t 0.119451 -n 20 -e 999.891810
N -t 0.119451 -n 7 -e 999.891810
N -t 0.119451 -n 15 -e 999.891810
N -t 0.119451 -n 12 -e 999.891810
N -t 0.119451 -n 10 -e 999.891810
N -t 0.119452 -n 2 -e 999.891810
N -t 0.119452 -n 22 -e 999.891809
N -t 0.119452 -n 14 -e 999.891809
r 0.120170632 _19_ MAC  --- 1 message 32 [0 ffffffff 17 800] [energy 999.891810 ei 0.107 es 0.000 et 0.000 er 0.001] ------- [23:255 -1:255 32 0] 
r 0.120170731 _5_ MAC  --- 1 message 32 [0 ffffffff 17 800] [energy 999.891810 ei 0.107 es 0.000 et 0.000 er 0.001] ------- [23:255 -1:255 32 0] 
r 0.120170844 _24_ MAC  --- 1 message 32 [0 ffffffff 17 800] [energy 999.891450 ei 0.107 es 0.000 et 0.001 er 0.001] ------- [23:255 -1:255 32 0] 
s 0.221310185 _16_ MAC  --- 2 message 90 [0 ffffffff 10 800] [energy 1000.000000 ei 0.000 es 0.000 et 0.000 er 0.000] ------- [16:255 -1:255 32 0] 
N -t 0.221310 -n 13 -e 999.800155
N -t 0.221310 -n 17 -e 999.800155
N -t 0.221310 -n 3 -e 999.800155
N -t 0.221311 -n 9 -e 999.800154
N -t 0.221312 -n 8 -e 999.800154
N -t 0.221312 -n 12 -e 999.800118
N -t 0.221312 -n 22 -e 999.800118
N -t 0.221312 -n 10 -e 999.800117
N -t 0.221312 -n 4 -e 999.800153
N -t 0.221312 -n 1 -e 999.800117
N -t 0.221312 -n 2 -e 999.800117
r 0.222030290 _13_ MAC  --- 2 message 32 [0 ffffffff 10 800] [energy 999.800155 ei 0.199 es 0.000 et 0.000 er 0.001] ------- [16:255 -1:255 32 0] 
r 0.222030470 _17_ MAC  --- 2 message 32 [0 ffffffff 10 800] [energy 999.800155 ei 0.199 es 0.000 et 0.000 er 0.001] ------- [16:255 -1:255 32 0] 
r 0.222030489 _3_ MAC  --- 2 message 32 [0 ffffffff 10 800] [energy 999.800155 ei 0.199 es 0.000 et 0.000 er 0.001] ------- [16:255 -1:255 32 0] 
s 0.227650802 _22_ MAC  --- 3 message 90 [0 ffffffff 16 800] [energy 999.800118 ei 0.198 es 0.000 et 0.000 er 0.002] ------- [22:255 -1:255 32 0] 
N -t 0.227651 -n 2 -e 999.794394
N -t 0.227651 -n 10 -e 999.794394
N -t 0.227652 -n 12 -e 999.794394
N -t 0.227652 -n 1 -e 999.794394
N -t 0.227652 -n 4 -e 999.794429
N -t 0.227652 -n 7 -e 999.794411
N -t 0.227652 -n 9 -e 999.794429
N -t 0.227652 -n 19 -e 999.794411
N -t 0.227652 -n 20 -e 999.794411
N -t 0.227652 -n 6 -e 999.794447
N -t 0.227652 -n 24 -e 999.794051
N -t 0.227652 -n 15 -e 999.794411
N -t 0.227652 -n 16 -e 999.794069
N -t 0.227652 -n 3 -e 999.794429
N -t 0.227652 -n 23 -e 999.794051
N -t 0.227652 -n 13 -e 999.794429
N -t 0.227652 -n 0 -e 999.794411
N -t 0.227653 -n 5 -e 999.794411
N -t 0.227653 -n 17 -e 999.794429
r 0.228370997 _2_ MAC  --- 3 message 32 [0 ffffffff 16 800] [energy 999.794394 ei 0.203 es 0.000 et 0.000 er 0.003] ------- [22:255 -1:255 32 0] 
r 0.228371158 _10_ MAC  --- 3 message 32 [0 ffffffff 16 800] [energy 999.794394 ei 0.203 es 0.000 et 0.000 er 0.003] ------- [22:255 -1:255 32 0] 
r 0.228371513 _12_ MAC  --- 3 message 32 [0 ffffffff 16 800] [energy 999.794394 ei 0.203 es 0.000 et 0.000 er 0.003] ------- [22:255 -1:255 32 0] 
r 0.228371573 _1_ MAC  --- 3 message 32 [0 ffffffff 16 800] [energy 999.794394 ei 0.203 es 0.000 et 0.000 er 0.003] ------- [22:255 -1:255 32 0] 
s 0.383012441 _18_ MAC  --- 4 message 90 [0 ffffffff 12 800] [energy 999.891810 ei 0.107 es 0.000 et 0.000 er 0.001] ------- [18:255 -1:255 32 0] 
N -t 0.383013 -n 21 -e 999.654587
N -t 0.383013 -n 5 -e 999.654568
N -t 0.383013 -n 11 -e 999.654586
N -t 0.383013 -n 24 -e 999.654208
N -t 0.383013 -n 23 -e 999.654208
N -t 0.383013 -n 0 -e 999.654568
N -t 0.383014 -n 14 -e 999.654586
N -t 0.383014 -n 19 -e 999.654568
N -t 0.383014 -n 1 -e 999.654549
N -t 0.383014 -n 12 -e 999.654549
r 0.383732762 _21_ MAC  --- 4 message 32 [0 ffffffff 12 800] [energy 999.654587 ei 0.343 es 0.000 et 0.000 er 0.002] ------- [18:255 -1:255 32 0] 
r 0.383732974 _5_ MAC  --- 4 message 32 [0 ffffffff 12 800] [energy 999.654568 ei 0.343 es 0.000 et 0.000 er 0.003] ------- [18:255 -1:255 32 0] 
r 0.383732999 _11_ MAC  --- 4 message 32 [0 ffffffff 12 800] [energy 999.654586 ei 0.343 es 0.000 et 0.000 er 0.002] ------- [18:255 -1:255 32 0] 
s 0.444193986 _9_ MAC  --- 5 message 90 [0 ffffffff 9 800] [energy 999.794429 ei 0.204 es 0.000 et 0.000 er 0.001] ------- [9:255 -1:255 32 0] 
N -t 0.444195 -n 3 -e 999.599523
N -t 0.444195 -n 4 -e 999.599523
N -t 0.444195 -n 16 -e 999.599163
N -t 0.444195 -n 13 -e 999.599523
N -t 0.444195 -n 17 -e 999.599522
N -t 0.444195 -n 22 -e 999.599126
N -t 0.444195 -n 2 -e 999.599486
N -t 0.444195 -n 10 -e 999.599486
N -t 0.444196 -n 12 -e 999.599468
N -t 0.444196 -n 1 -e 999.599468
r 0.444914648 _3_ MAC  --- 5 message 32 [0 ffffffff 9 800] [energy 999.599523 ei 0.398 es 0.000 et 0.000 er 0.002] ------- [9:255 -1:255 32 0] 
r 0.444914815 _4_ MAC  --- 5 message 32 [0 ffffffff 9 800] [energy 999.599523 ei 0.398 es 0.000 et 0.000 er 0.002] ------- [9:255 -1:255 32 0] 
s 0.491277311 _10_ MAC  --- 6 message 90 [0 ffffffff a 800] [energy 999.599486 ei 0.397 es 0.000 et 0.000 er 0.003] ------- [10:255 -1:255 32 0] 
N -t 0.491278 -n 22 -e 999.556734
N -t 0.491278 -n 12 -e 999.557076
N -t 0.491278 -n 1 -e 999.557076
N -t 0.491278 -n 2 -e 999.557094
N -t 0.491278 -n 19 -e 999.557111
N -t 0.491278 -n 24 -e 999.556751
N -t 0.491278 -n 7 -e 999.557129
N -t 0.491279 -n 0 -e 999.557111
N -t 0.491279 -n 23 -e 999.556751
N -t 0.491279 -n 5 -e 999.557111
N -t 0.491279 -n 20 -e 999.557129
N -t 0.491279 -n 4 -e 999.557129
N -t 0.491279 -n 9 -e 999.556769
N -t 0.491279 -n 16 -e 999.556769
N -t 0.491279 -n 15 -e 999.557129
N -t 0.491279 -n 3 -e 999.557129
N -t 0.491279 -n 13 -e 999.557129
N -t 0.491279 -n 14 -e 999.557129
N -t 0.491279 -n 6 -e 999.557165
N -t 0.491279 -n 17 -e 999.557129
r 0.491997668 _22_ MAC  --- 6 message 32 [0 ffffffff a 800] [energy 999.556734 ei 0.439 es 0.000 et 0.001 er 0.003] ------- [10:255 -1:255 32 0] 
r 0.491997688 _12_ MAC  --- 6 message 32 [0 ffffffff a 800] [energy 999.557076 ei 0.438 es 0.000 et 0.000 er 0.005] ------- [10:255 -1:255 32 0] 
r 0.491997729 _1_ MAC  --- 6 message 32 [0 ffffffff a 800] [energy 999.557076 ei 0.438 es 0.000 et 0.000 er 0.005] ------- [10:255 -1:255 32 0] 
r 0.491997781 _2_ MAC  --- 6 message 32 [0 ffffffff a 800] [energy 999.557094 ei 0.439 es 0.000 et 0.000 er 0.004] ------- [10:255 -1:255 32 0] 
s 0.517192899 _2_ MAC  --- 7 message 90 [0 ffffffff 2 800] [energy 999.557094 ei 0.439 es 0.000 et 0.000 er 0.004] ------- [2:255 -1:255 32 0] 
N -t 0.517193 -n 22 -e 999.533392
N -t 0.517193 -n 10 -e 999.533392
N -t 0.517194 -n 12 -e 999.533734
N -t 0.517194 -n 1 -e 999.533734
N -t 0.517194 -n 7 -e 999.533788
N -t 0.517194 -n 4 -e 999.533787
N -t 0.517194 -n 19 -e 999.533769
N -t 0.517194 -n 20 -e 999.533787
N -t 0.517194 -n 6 -e 999.533823
N -t 0.517194 -n 15 -e 999.533787
N -t 0.517194 -n 9 -e 999.533427
N -t 0.517194 -n 23 -e 999.533409
N -t 0.517194 -n 24 -e 999.533409
N -t 0.517195 -n 3 -e 999.533787
N -t 0.517195 -n 16 -e 999.533427
N -t 0.517195 -n 0 -e 999.533769
N -t 0.517195 -n 5 -e 999.533769
N -t 0.517195 -n 13 -e 999.533787
r 0.517913094 _22_ MAC  --- 7 message 32 [0 ffffffff 2 800] [energy 999.533392 ei 0.462 es 0.000 et 0.001 er 0.004] ------- [2:255 -1:255 32 0] 
r 0.517913370 _10_ MAC  --- 7 message 32 [0 ffffffff 2 800] [energy 999.533392 ei 0.462 es 0.000 et 0.001 er 0.004] ------- [2:255 -1:255 32 0] 
s 0.706363514 _1_ MAC  --- 8 message 90 [0 ffffffff 1 800] [energy 999.533734 ei 0.461 es 0.000 et 0.000 er 0.005] ------- [1:255 -1:255 32 0] 
N -t 0.706364 -n 12 -e 999.363463
N -t 0.706364 -n 10 -e 999.363120
N -t 0.706364 -n 24 -e 999.363138
N -t 0.706364 -n 22 -e 999.363120
N -t 0.706364 -n 0 -e 999.363498
N -t 0.706364 -n 2 -e 999.363120
N -t 0.706365 -n 19 -e 999.363498
N -t 0.706365 -n 23 -e 999.363138
N -t 0.706365 -n 5 -e 999.363498
N -t 0.706365 -n 14 -e 999.363534
N -t 0.706365 -n 7 -e 999.363516
N -t 0.706365 -n 20 -e 999.363516
N -t 0.706365 -n 18 -e 999.363191
N -t 0.706365 -n 15 -e 999.363515
N -t 0.706365 -n 16 -e 999.363155
N -t 0.706365 -n 13 -e 999.363515
N -t 0.706365 -n 9 -e 999.363155
N -t 0.706365 -n 3 -e 999.363515
N -t 0.706365 -n 4 -e 999.363515
r 0.707083775 _12_ MAC  --- 8 message 32 [0 ffffffff 1 800] [energy 999.363463 ei 0.631 es 0.000 et 0.000 er 0.006] ------- [1:255 -1:255 32 0] 
r 0.707083932 _10_ MAC  --- 8 message 32 [0 ffffffff 1 800] [energy 999.363120 ei 0.631 es 0.000 et 0.001 er 0.005] ------- [1:255 -1:255 32 0] 
r 0.707084224 _24_ MAC  --- 8 message 32 [0 ffffffff 1 800] [energy 999.363138 ei 0.632 es 0.000 et 0.001 er 0.004] ------- [1:255 -1:255 32 0] 
r 0.707084286 _22_ MAC  --- 8 message 32 [0 ffffffff 1 800] [energy 999.363120 ei 0.631 es 0.000 et 0.001 er 0.005] ------- [1:255 -1:255 32 0] 
s 0.812350642 _17_ MAC  --- 9 message 90 [0 ffffffff 11 800] [energy 999.557129 ei 0.440 es 0.000 et 0.000 er 0.003] ------- [17:255 -1:255 32 0] 
N -t 0.812351 -n 13 -e 999.268110
N -t 0.812351 -n 16 -e 999.267750
N -t 0.812351 -n 3 -e 999.268110
N -t 0.812352 -n 9 -e 999.267749
N -t 0.812352 -n 8 -e 999.268199
N -t 0.812352 -n 12 -e 999.268055
N -t 0.812352 -n 10 -e 999.267713
N -t 0.812352 -n 22 -e 999.267713
r 0.813070823 _13_ MAC  --- 9 message 32 [0 ffffffff 11 800] [energy 999.268110 ei 0.727 es 0.000 et 0.000 er 0.005] ------- [17:255 -1:255 32 0] 
r 0.813070927 _16_ MAC  --- 9 message 32 [0 ffffffff 11 800] [energy 999.267750 ei 0.727 es 0.000 et 0.001 er 0.004] ------- [17:255 -1:255 32 0] 
r 0.813071142 _3_ MAC  --- 9 message 32 [0 ffffffff 11 800] [energy 999.268110 ei 0.727 es 0.000 et 0.000 er 0.005] ------- [17:255 -1:255 32 0] 
s 0.819308978 _15_ MAC  --- 10 message 90 [0 ffffffff f 800] [energy 999.363515 ei 0.632 es 0.000 et 0.000 er 0.004] ------- [15:255 -1:255 32 0] 
N -t 0.819309 -n 20 -e 999.261848
N -t 0.819309 -n 7 -e 999.261848
N -t 0.819310 -n 19 -e 999.261829
N -t 0.819310 -n 6 -e 999.261901
N -t 0.819310 -n 23 -e 999.261469
N -t 0.819310 -n 2 -e 999.261451
N -t 0.819310 -n 22 -e 999.261433
N -t 0.819310 -n 10 -e 999.261433
N -t 0.819311 -n 1 -e 999.261432
N -t 0.819311 -n 5 -e 999.261828
N -t 0.819311 -n 24 -e 999.261468
N -t 0.819311 -n 12 -e 999.261774
r 0.820029100 _20_ MAC  --- 10 message 32 [0 ffffffff f 800] [energy 999.261848 ei 0.733 es 0.000 et 0.000 er 0.005] ------- [15:255 -1:255 32 0] 
r 0.820029336 _7_ MAC  --- 10 message 32 [0 ffffffff f 800] [energy 999.261848 ei 0.733 es 0.000 et 0.000 er 0.005] ------- [15:255 -1:255 32 0] 
r 0.820029802 _19_ MAC  --- 10 message 32 [0 ffffffff f 800] [energy 999.261829 ei 0.733 es 0.000 et 0.000 er 0.005] ------- [15:255 -1:255 32 0] 
s 0.821730127 _3_ MAC  --- 11 message 90 [0 ffffffff 3 800] [energy 999.268110 ei 0.727 es 0.000 et 0.000 er 0.005] ------- [3:255 -1:255 32 0] 
N -t 0.821730 -n 16 -e 999.259291
N -t 0.821730 -n 13 -e 999.259651
N -t 0.821731 -n 17 -e 999.259326
N -t 0.821731 -n 9 -e 999.259290
N -t 0.821732 -n 4 -e 999.259668
N -t 0.821732 -n 22 -e 999.259236
N -t 0.821732 -n 12 -e 999.259577
N -t 0.821732 -n 10 -e 999.259235
N -t 0.821732 -n 2 -e 999.259253
N -t 0.821732 -n 8 -e 999.259739
N -t 0.821732 -n 1 -e 999.259235
r 0.822450431 _16_ MAC  --- 11 message 32 [0 ffffffff 3 800] [energy 999.259291 ei 0.735 es 0.000 et 0.001 er 0.005] ------- [3:255 -1:255 32 0] 
r 0.822450481 _13_ MAC  --- 11 message 32 [0 ffffffff 3 800] [energy 999.259651 ei 0.735 es 0.000 et 0.000 er 0.005] ------- [3:255 -1:255 32 0] 
r 0.822450627 _17_ MAC  --- 11 message 32 [0 ffffffff 3 800] [energy 999.259326 ei 0.736 es 0.000 et 0.001 er 0.003] ------- [3:255 -1:255 32 0] 
r 0.822450790 _9_ MAC  --- 11 message 32 [0 ffffffff 3 800] [energy 999.259290 ei 0.735 es 0.000 et 0.001 er 0.005] ------- [3:255 -1:255 32 0] 
s 0.939663771 _5_ MAC  --- 12 message 90 [0 ffffffff 5 800] [energy 999.261828 ei 0.733 es 0.000 et 0.000 er 0.005] ------- [5:255 -1:255 32 0] 
N -t 0.939664 -n 24 -e 999.153132
N -t 0.939664 -n 18 -e 999.153204
N -t 0.939664 -n 23 -e 999.153132
N -t 0.939664 -n 0 -e 999.153510
N -t 0.939665 -n 21 -e 999.153582
N -t 0.939665 -n 11 -e 999.153582
N -t 0.939665 -n 19 -e 999.153492
N -t 0.939665 -n 1 -e 999.153078
N -t 0.939665 -n 14 -e 999.153546
N -t 0.939665 -n 12 -e 999.153420
N -t 0.939665 -n 10 -e 999.153077
N -t 0.939665 -n 20 -e 999.153509
N -t 0.939665 -n 7 -e 999.153509
N -t 0.939665 -n 22 -e 999.153077
N -t 0.939665 -n 2 -e 999.153095
N -t 0.939666 -n 15 -e 999.153149
r 0.940384093 _24_ MAC  --- 12 message 32 [0 ffffffff 5 800] [energy 999.153132 ei 0.841 es 0.000 et 0.001 er 0.005] ------- [5:255 -1:255 32 0] 
r 0.940384304 _18_ MAC  --- 12 message 32 [0 ffffffff 5 800] [energy 999.153204 ei 0.843 es 0.000 et 0.001 er 0.003] ------- [5:255 -1:255 32 0] 
r 0.940384310 _23_ MAC  --- 12 message 32 [0 ffffffff 5 800] [energy 999.153132 ei 0.841 es 0.000 et 0.001 er 0.005] ------- [5:255 -1:255 32 0] 
r 0.940384407 _0_ MAC  --- 12 message 32 [0 ffffffff 5 800] [energy 999.153510 ei 0.841 es 0.000 et 0.000 er 0.005] ------- [5:255 -1:255 32 0] 
s 1.040422479 _4_ MAC  --- 13 message 90 [0 ffffffff 4 800] [energy 999.259668 ei 0.736 es 0.000 et 0.000 er 0.005] ------- [4:255 -1:255 32 0] 
N -t 1.040423 -n 9 -e 999.062449
N -t 1.040424 -n 2 -e 999.062395
N -t 1.040424 -n 22 -e 999.062377
N -t 1.040424 -n 6 -e 999.062881
N -t 1.040424 -n 10 -e 999.062377
N -t 1.040424 -n 3 -e 999.062448
N -t 1.040424 -n 16 -e 999.062448
N -t 1.040424 -n 7 -e 999.062808
N -t 1.040424 -n 12 -e 999.062718
N -t 1.040424 -n 13 -e 999.062808
N -t 1.040424 -n 1 -e 999.062376
r 1.041143308 _9_ MAC  --- 13 message 32 [0 ffffffff 4 800] [energy 999.062449 ei 0.931 es 0.000 et 0.001 er 0.005] ------- [4:255 -1:255 32 0] 
s 1.363992843 _12_ MAC  --- 14 message 90 [0 ffffffff c 800] [energy 999.062718 ei 0.928 es 0.000 et 0.000 er 0.009] ------- [12:255 -1:255 32 0] 
N -t 1.363993 -n 1 -e 998.771146
N -t 1.363993 -n 10 -e 998.771146
N -t 1.363994 -n 22 -e 998.771146
N -t 1.363994 -n 2 -e 998.771164
N -t 1.363994 -n 24 -e 998.771218
N -t 1.363994 -n 0 -e 998.771596
N -t 1.363994 -n 5 -e 998.771217
N -t 1.363994 -n 19 -e 998.771577
N -t 1.363994 -n 23 -e 998.771217
N -t 1.363994 -n 14 -e 998.771631
N -t 1.363994 -n 16 -e 998.771217
N -t 1.363994 -n 13 -e 998.771577
N -t 1.363994 -n 7 -e 998.771577
N -t 1.363994 -n 3 -e 998.771217
N -t 1.363994 -n 9 -e 998.771217
N -t 1.363994 -n 17 -e 998.771271
N -t 1.363995 -n 20 -e 998.771595
N -t 1.363995 -n 4 -e 998.771235
N -t 1.363995 -n 8 -e 998.771685
N -t 1.363995 -n 18 -e 998.771289
N -t 1.363995 -n 15 -e 998.771235
r 1.364713103 _1_ MAC  --- 14 message 32 [0 ffffffff c 800] [energy 998.771146 ei 1.219 es 0.000 et 0.001 er 0.009] ------- [12:255 -1:255 32 0] 
r 1.364713220 _10_ MAC  --- 14 message 32 [0 ffffffff c 800] [energy 998.771146 ei 1.219 es 0.000 et 0.001 er 0.009] ------- [12:255 -1:255 32 0] 
r 1.364713554 _22_ MAC  --- 14 message 32 [0 ffffffff c 800] [energy 998.771146 ei 1.219 es 0.000 et 0.001 er 0.009] ------- [12:255 -1:255 32 0] 
s 1.392261019 _6_ MAC  --- 15 message 90 [0 ffffffff 6 800] [energy 999.062881 ei 0.934 es 0.000 et 0.000 er 0.003] ------- [6:255 -1:255 32 0] 
N -t 1.392262 -n 7 -e 998.746118
N -t 1.392262 -n 15 -e 998.745776
N -t 1.392262 -n 20 -e 998.746136
N -t 1.392262 -n 2 -e 998.745704
N -t 1.392262 -n 4 -e 998.745776
N -t 1.392262 -n 22 -e 998.745686
N -t 1.392263 -n 10 -e 998.745686
N -t 1.392263 -n 19 -e 998.746118
s 1.529111400 _13_ MAC  --- 16 message 90 [0 ffffffff d 800] [energy 998.771577 ei 1.222 es 0.000 et 0.000 er 0.007] ------- [13:255 -1:255 32 0] 
N -t 1.529112 -n 16 -e 998.622594
N -t 1.529112 -n 17 -e 998.622648
N -t 1.529112 -n 3 -e 998.622593
N -t 1.529112 -n 9 -e 998.622593
N -t 1.529113 -n 8 -e 998.623061
N -t 1.529113 -n 12 -e 998.622502
N -t 1.529113 -n 10 -e 998.622502
N -t 1.529113 -n 22 -e 998.622502
N -t 1.529113 -n 1 -e 998.622520
N -t 1.529113 -n 4 -e 998.622592
N -t 1.529113 -n 2 -e 998.622520
r 1.529831505 _16_ MAC  --- 16 message 32 [0 ffffffff d 800] [energy 998.622594 ei 1.370 es 0.000 et 0.001 er 0.007] ------- [13:255 -1:255 32 0] 
r 1.529831581 _17_ MAC  --- 16 message 32 [0 ffffffff d 800] [energy 998.622648 ei 1.372 es 0.000 et 0.001 er 0.005] ------- [13:255 -1:255 32 0] 
r 1.529831753 _3_ MAC  --- 16 message 32 [0 ffffffff d 800] [energy 998.622593 ei 1.370 es 0.000 et 0.001 er 0.007] ------- [13:255 -1:255 32 0] 
s 1.618524329 _0_ MAC  --- 17 message 90 [0 ffffffff 0 800] [energy 998.771596 ei 1.222 es 0.000 et 0.000 er 0.006] ------- [0:255 -1:255 32 0] 
N -t 1.618525 -n 24 -e 998.542122
N -t 1.618525 -n 14 -e 998.542536
N -t 1.618525 -n 5 -e 998.542122
N -t 1.618525 -n 1 -e 998.542031
N -t 1.618525 -n 12 -e 998.542013
N -t 1.618525 -n 18 -e 998.542193
N -t 1.618525 -n 23 -e 998.542121
N -t 1.618526 -n 10 -e 998.542013
N -t 1.618526 -n 21 -e 998.542589
N -t 1.618526 -n 19 -e 998.542463
N -t 1.618526 -n 11 -e 998.542589
N -t 1.618526 -n 22 -e 998.542013
N -t 1.618526 -n 2 -e 998.542031
N -t 1.618526 -n 8 -e 998.542571
r 1.619244747 _24_ MAC  --- 17 message 32 [0 ffffffff 0 800] [energy 998.542122 ei 1.450 es 0.000 et 0.001 er 0.007] ------- [0:255 -1:255 32 0] 
r 1.619244841 _14_ MAC  --- 17 message 32 [0 ffffffff 0 800] [energy 998.542536 ei 1.452 es 0.000 et 0.000 er 0.005] ------- [0:255 -1:255 32 0] 
r 1.619244966 _5_ MAC  --- 17 message 32 [0 ffffffff 0 800] [energy 998.542122 ei 1.450 es 0.000 et 0.001 er 0.007] ------- [0:255 -1:255 32 0] 
s 1.681886926 _8_ MAC  --- 18 message 90 [0 ffffffff 8 800] [energy 998.542571 ei 1.453 es 0.000 et 0.000 er 0.004] ------- [8:255 -1:255 32 0] 
N -t 1.681888 -n 17 -e 998.485131
N -t 1.681888 -n 13 -e 998.485077
N -t 1.681888 -n 16 -e 998.485077
N -t 1.681888 -n 14 -e 998.485490
N -t 1.681889 -n 3 -e 998.485076
N -t 1.681889 -n 12 -e 998.484968
N -t 1.681889 -n 0 -e 998.485094
s 1.710024639 _11_ MAC  --- 19 message 90 [0 ffffffff b 800] [energy 998.542589 ei 1.454 es 0.000 et 0.000 er 0.003] ------- [11:255 -1:255 32 0] 
N -t 1.710025 -n 21 -e 998.460221
N -t 1.710025 -n 18 -e 998.459825
N -t 1.710026 -n 5 -e 998.459753
N -t 1.710026 -n 23 -e 998.459753
N -t 1.710026 -n 24 -e 998.459753
N -t 1.710026 -n 19 -e 998.460095
N -t 1.710026 -n 0 -e 998.459752
r 1.710745134 _21_ MAC  --- 19 message 32 [0 ffffffff b 800] [energy 998.460221 ei 1.536 es 0.000 et 0.000 er 0.004] ------- [11:255 -1:255 32 0] 
r 1.710745197 _18_ MAC  --- 19 message 32 [0 ffffffff b 800] [energy 998.459825 ei 1.534 es 0.000 et 0.001 er 0.005] ------- [11:255 -1:255 32 0] 
s 1.733257390 _7_ MAC  --- 20 message 90 [0 ffffffff 7 800] [energy 998.746118 ei 1.247 es 0.000 et 0.000 er 0.007] ------- [7:255 -1:255 32 0] 
N -t 1.733258 -n 20 -e 998.439222
N -t 1.733258 -n 15 -e 998.438862
N -t 1.733258 -n 19 -e 998.439168
N -t 1.733258 -n 2 -e 998.438754
N -t 1.733258 -n 6 -e 998.438934
N -t 1.733258 -n 22 -e 998.438735
N -t 1.733259 -n 10 -e 998.438735
N -t 1.733259 -n 23 -e 998.438825
N -t 1.733259 -n 1 -e 998.438753
N -t 1.733259 -n 12 -e 998.438717
N -t 1.733259 -n 24 -e 998.438825
N -t 1.733259 -n 4 -e 998.438843
N -t 1.733259 -n 5 -e 998.438825
r 1.733977652 _20_ MAC  --- 20 message 32 [0 ffffffff 7 800] [energy 998.439222 ei 1.553 es 0.000 et 0.000 er 0.007] ------- [7:255 -1:255 32 0] 
r 1.733977748 _15_ MAC  --- 20 message 32 [0 ffffffff 7 800] [energy 998.438862 ei 1.553 es 0.000 et 0.001 er 0.007] ------- [7:255 -1:255 32 0] 
r 1.733978157 _19_ MAC  --- 20 message 32 [0 ffffffff 7 800] [energy 998.439168 ei 1.552 es 0.000 et 0.000 er 0.009] ------- [7:255 -1:255 32 0] 
s 1.776728940 _19_ MAC  --- 21 message 90 [0 ffffffff 13 800] [energy 998.439168 ei 1.552 es 0.000 et 0.000 er 0.009] ------- [19:255 -1:255 32 0] 
N -t 1.776729 -n 23 -e 998.399684
N -t 1.776730 -n 20 -e 998.400079
N -t 1.776730 -n 7 -e 998.399701
N -t 1.776730 -n 15 -e 998.399719
N -t 1.776730 -n 5 -e 998.399683
N -t 1.776730 -n 24 -e 998.399683
N -t 1.776730 -n 1 -e 998.399611
N -t 1.776730 -n 10 -e 998.399593
N -t 1.776730 -n 2 -e 998.399611
N -t 1.776730 -n 12 -e 998.399575
N -t 1.776730 -n 22 -e 998.399593
N -t 1.776730 -n 11 -e 998.399809
N -t 1.776730 -n 18 -e 998.399773
N -t 1.776730 -n 0 -e 998.399701
N -t 1.776731 -n 21 -e 998.400169
N -t 1.776731 -n 6 -e 998.399790
r 1.777449380 _23_ MAC  --- 21 message 32 [0 ffffffff 13 800] [energy 998.399684 ei 1.591 es 0.000 et 0.001 er 0.009] ------- [19:255 -1:255 32 0] 
r 1.777449670 _20_ MAC  --- 21 message 32 [0 ffffffff 13 800] [energy 998.400079 ei 1.592 es 0.000 et 0.000 er 0.008] ------- [19:255 -1:255 32 0] 
r 1.777449708 _7_ MAC  --- 21 message 32 [0 ffffffff 13 800] [energy 998.399701 ei 1.591 es 0.000 et 0.001 er 0.008] ------- [19:255 -1:255 32 0] 
r 1.777449765 _15_ MAC  --- 21 message 32 [0 ffffffff 13 800] [energy 998.399719 ei 1.592 es 0.000 et 0.001 er 0.007] ------- [19:255 -1:255 32 0] 
s 1.790392725 _21_ MAC  --- 22 message 90 [0 ffffffff 15 800] [energy 998.400169 ei 1.595 es 0.000 et 0.000 er 0.005] ------- [21:255 -1:255 32 0] 
N -t 1.790393 -n 18 -e 998.387458
N -t 1.790393 -n 11 -e 998.387494
N -t 1.790394 -n 5 -e 998.387368
N -t 1.790394 -n 24 -e 998.387368
N -t 1.790394 -n 23 -e 998.387368
N -t 1.790394 -n 0 -e 998.387385
N -t 1.790394 -n 14 -e 998.387817
N -t 1.790394 -n 19 -e 998.387349
r 1.791113045 _18_ MAC  --- 22 message 32 [0 ffffffff 15 800] [energy 998.387458 ei 1.606 es 0.000 et 0.001 er 0.006] ------- [21:255 -1:255 32 0] 
r 1.791113220 _11_ MAC  --- 22 message 32 [0 ffffffff 15 800] [energy 998.387494 ei 1.607 es 0.000 et 0.001 er 0.005] ------- [21:255 -1:255 32 0] 
s 1.813885552 _14_ MAC  --- 23 message 90 [0 ffffffff e 800] [energy 998.387817 ei 1.606 es 0.000 et 0.000 er 0.007] ------- [14:255 -1:255 32 0] 
N -t 1.813886 -n 0 -e 998.366225
N -t 1.813886 -n 24 -e 998.366206
N -t 1.813887 -n 5 -e 998.366206
N -t 1.813887 -n 1 -e 998.366152
N -t 1.813887 -n 12 -e 998.366116
N -t 1.813887 -n 18 -e 998.366296
N -t 1.813887 -n 8 -e 998.366350
N -t 1.813887 -n 21 -e 998.366332
N -t 1.813887 -n 23 -e 998.366206
N -t 1.813887 -n 10 -e 998.366134
r 1.814606063 _0_ MAC  --- 23 message 32 [0 ffffffff e 800] [energy 998.366225 ei 1.623 es 0.000 et 0.001 er 0.009] ------- [14:255 -1:255 32 0] 
s 1.894994675 _20_ MAC  --- 24 message 90 [0 ffffffff 14 800] [energy 998.400079 ei 1.592 es 0.000 et 0.000 er 0.008] ------- [20:255 -1:255 32 0] 
N -t 1.894995 -n 15 -e 998.293263
N -t 1.894995 -n 7 -e 998.293245
N -t 1.894995 -n 19 -e 998.293190
N -t 1.894996 -n 6 -e 998.293334
N -t 1.894996 -n 23 -e 998.293190
N -t 1.894996 -n 2 -e 998.293154
N -t 1.894996 -n 22 -e 998.293136
N -t 1.894996 -n 10 -e 998.293118
N -t 1.894996 -n 1 -e 998.293135
N -t 1.894996 -n 12 -e 998.293099
N -t 1.894996 -n 24 -e 998.293189
N -t 1.894996 -n 5 -e 998.293189
r 1.895714798 _15_ MAC  --- 24 message 32 [0 ffffffff 14 800] [energy 998.293263 ei 1.698 es 0.000 et 0.001 er 0.008] ------- [20:255 -1:255 32 0] 
r 1.895714938 _7_ MAC  --- 24 message 32 [0 ffffffff 14 800] [energy 998.293245 ei 1.697 es 0.000 et 0.001 er 0.009] ------- [20:255 -1:255 32 0] 
r 1.895715405 _19_ MAC  --- 24 message 32 [0 ffffffff 14 800] [energy 998.293190 ei 1.695 es 0.000 et 0.001 er 0.011] ------- [20:255 -1:255 32 0] 
s 12.030620307 _0_ MAC  --- 27 message 90 [0 ffffffff 0 800] [energy 998.366225 ei 1.623 es 0.000 et 0.001 er 0.009] ------- [0:255 -1:255 32 0] 
N -t 12.030621 -n 24 -e 989.171109
N -t 12.030621 -n 14 -e 989.171217
N -t 12.030621 -n 5 -e 989.171109
N -t 12.030621 -n 1 -e 989.171055
N -t 12.030621 -n 12 -e 989.171019
N -t 12.030621 -n 18 -e 989.171217
N -t 12.030621 -n 23 -e 989.171109
N -t 12.030622 -n 10 -e 989.171037
N -t 12.030622 -n 21 -e 989.171253
N -t 12.030622 -n 19 -e 989.171108
N -t 12.030622 -n 11 -e 989.171270
N -t 12.030622 -n 22 -e 989.171054
N -t 12.030622 -n 2 -e 989.171072
N -t 12.030622 -n 8 -e 989.171270
r 12.031340725 _24_ MAC  --- 27 message 32 [0 ffffffff 0 800] [energy 989.171109 ei 10.817 es 0.000 et 0.001 er 0.011] ------- [0:255 -1:255 32 0] 
r 12.031340819 _14_ MAC  --- 27 message 32 [0 ffffffff 0 800] [energy 989.171217 ei 10.820 es 0.000 et 0.001 er 0.007] ------- [0:255 -1:255 32 0] 
r 12.031340944 _5_ MAC  --- 27 message 32 [0 ffffffff 0 800] [energy 989.171109 ei 10.817 es 0.000 et 0.001 er 0.011] ------- [0:255 -1:255 32 0] 
s 12.034644978 _1_ MAC  --- 29 message 90 [0 ffffffff 1 800] [energy 989.171055 ei 10.815 es 0.000 et 0.001 er 0.013] ------- [1:255 -1:255 32 0] 
N -t 12.034645 -n 12 -e 989.167379
N -t 12.034645 -n 10 -e 989.167397
N -t 12.034646 -n 24 -e 989.167469
N -t 12.034646 -n 22 -e 989.167415
N -t 12.034646 -n 0 -e 989.167145
N -t 12.034646 -n 2 -e 989.167433
N -t 12.034646 -n 19 -e 989.167469
N -t 12.034646 -n 23 -e 989.167469
N -t 12.034646 -n 5 -e 989.167469
N -t 12.034646 -n 14 -e 989.167576
N -t 12.034646 -n 7 -e 989.167540
N -t 12.034646 -n 20 -e 989.167558
N -t 12.034647 -n 18 -e 989.167576
N -t 12.034647 -n 15 -e 989.167558
N -t 12.034647 -n 16 -e 989.167576
N -t 12.034647 -n 13 -e 989.167576
N -t 12.034647 -n 9 -e 989.167594
N -t 12.034647 -n 3 -e 989.167576
N -t 12.034647 -n 4 -e 989.167576
r 12.035365238 _12_ MAC  --- 29 message 32 [0 ffffffff 1 800] [energy 989.167379 ei 10.816 es 0.000 et 0.001 er 0.015] ------- [1:255 -1:255 32 0] 
r 12.035365396 _10_ MAC  --- 29 message 32 [0 ffffffff 1 800] [energy 989.167397 ei 10.817 es 0.000 et 0.001 er 0.015] ------- [1:255 -1:255 32 0] 
r 12.035365688 _24_ MAC  --- 29 message 32 [0 ffffffff 1 800] [energy 989.167469 ei 10.820 es 0.000 et 0.001 er 0.012] ------- [1:255 -1:255 32 0] 
r 12.035365750 _22_ MAC  --- 29 message 32 [0 ffffffff 1 800] [energy 989.167415 ei 10.818 es 0.000 et 0.001 er 0.014] ------- [1:255 -1:255 32 0] 
s 12.036136736 _9_ MAC  --- 25 message 90 [0 ffffffff 9 800] [energy 989.167594 ei 10.824 es 0.000 et 0.001 er 0.007] ------- [9:255 -1:255 32 0] 
N -t 12.036137 -n 3 -e 989.166216
N -t 12.036138 -n 4 -e 989.166216
N -t 12.036138 -n 16 -e 989.166216
N -t 12.036138 -n 13 -e 989.166216
N -t 12.036138 -n 17 -e 989.166288
N -t 12.036138 -n 22 -e 989.166054
N -t 12.036138 -n 2 -e 989.166072
N -t 12.036138 -n 10 -e 989.166036
N -t 12.036138 -n 12 -e 989.166018
N -t 12.036139 -n 1 -e 989.165693
r 12.036857398 _3_ MAC  --- 25 message 32 [0 ffffffff 9 800] [energy 989.166216 ei 10.824 es 0.000 et 0.001 er 0.009] ------- [9:255 -1:255 32 0] 
r 12.036857565 _4_ MAC  --- 25 message 32 [0 ffffffff 9 800] [energy 989.166216 ei 10.824 es 0.000 et 0.001 er 0.009] ------- [9:255 -1:255 32 0] 
s 12.038232843 _23_ MAC  --- 28 message 90 [0 ffffffff 17 800] [energy 989.167469 ei 10.820 es 0.000 et 0.001 er 0.012] ------- [23:255 -1:255 32 0] 
N -t 12.038233 -n 19 -e 989.164222
N -t 12.038233 -n 5 -e 989.164222
N -t 12.038233 -n 24 -e 989.164222
N -t 12.038234 -n 18 -e 989.164330
N -t 12.038234 -n 11 -e 989.164402
N -t 12.038234 -n 1 -e 989.163790
N -t 12.038234 -n 0 -e 989.163897
N -t 12.038234 -n 21 -e 989.164383
N -t 12.038234 -n 20 -e 989.164311
N -t 12.038234 -n 7 -e 989.164293
N -t 12.038234 -n 15 -e 989.164311
N -t 12.038234 -n 12 -e 989.164113
N -t 12.038234 -n 10 -e 989.164131
N -t 12.038234 -n 2 -e 989.164167
N -t 12.038234 -n 22 -e 989.164149
N -t 12.038234 -n 14 -e 989.164329
r 12.038953282 _19_ MAC  --- 28 message 32 [0 ffffffff 17 800] [energy 989.164222 ei 10.822 es 0.000 et 0.001 er 0.013] ------- [23:255 -1:255 32 0] 
r 12.038953382 _5_ MAC  --- 28 message 32 [0 ffffffff 17 800] [energy 989.164222 ei 10.822 es 0.000 et 0.001 er 0.013] ------- [23:255 -1:255 32 0] 
r 12.038953494 _24_ MAC  --- 28 message 32 [0 ffffffff 17 800] [energy 989.164222 ei 10.822 es 0.000 et 0.001 er 0.013] ------- [23:255 -1:255 32 0] 
s 12.039123382 _5_ MAC  --- 26 message 90 [0 ffffffff 5 800] [energy 989.164222 ei 10.822 es 0.000 et 0.001 er 0.013] ------- [5:255 -1:255 32 0] 
N -t 12.039124 -n 24 -e 989.163403
N -t 12.039124 -n 18 -e 989.163510
N -t 12.039124 -n 23 -e 989.163042
N -t 12.039124 -n 0 -e 989.163078
N -t 12.039124 -n 21 -e 989.163564
N -t 12.039124 -n 11 -e 989.163582
N -t 12.039124 -n 19 -e 989.163402
N -t 12.039124 -n 1 -e 989.162970
N -t 12.039124 -n 14 -e 989.163510
N -t 12.039125 -n 12 -e 989.163294
N -t 12.039125 -n 10 -e 989.163312
N -t 12.039125 -n 20 -e 989.163491
N -t 12.039125 -n 7 -e 989.163473
N -t 12.039125 -n 22 -e 989.163329
N -t 12.039125 -n 2 -e 989.163347
N -t 12.039125 -n 15 -e 989.163491
r 12.039843704 _24_ MAC  --- 26 message 32 [0 ffffffff 5 800] [energy 989.163403 ei 10.822 es 0.000 et 0.001 er 0.013] ------- [5:255 -1:255 32 0] 
r 12.039843915 _18_ MAC  --- 26 message 32 [0 ffffffff 5 800] [energy 989.163510 ei 10.826 es 0.000 et 0.001 er 0.009] ------- [5:255 -1:255 32 0] 