s 0.001216201 _0_ MAC  --- 0 message 90 [0 ffffffff 0 800] [energy 1000.000000 ei 0.000 es 0.000 et 0.000 er 0.000] ------- [0:255 -1:255 32 0] 
N -t 0.001217 -n 1 -e 999.997818
r 0.001937031 _1_ MAC  --- 0 message 32 [0 ffffffff 0 800] [energy 999.997818 ei 0.001 es 0.000 et 0.000 er 0.001] ------- [0:255 -1:255 32 0] 
s 1.115206050 _1_ MAC  --- 1 message 90 [0 ffffffff 1 800] [energy 999.997818 ei 0.001 es 0.000 et 0.000 er 0.001] ------- [1:255 -1:255 32 0] 
N -t 1.115207 -n 0 -e 999.028732
r 1.115926880 _0_ MAC  --- 1 message 32 [0 ffffffff 1 800] [energy 999.028732 ei 0.969 es 0.000 et 0.001 er 0.001] ------- [1:255 -1:255 32 0] 
s 11.584344962 _0_ MAC  --- 2 message 90 [0 ffffffff 0 800] [energy 999.028732 ei 0.969 es 0.000 et 0.001 er 0.001] ------- [0:255 -1:255 32 0] 
N -t 11.584346 -n 1 -e 989.926365
r 11.585065792 _1_ MAC  --- 2 message 32 [0 ffffffff 0 800] [energy 989.926365 ei 10.070 es 0.000 et 0.001 er 0.002] ------- [0:255 -1:255 32 0] 
s 13.122787556 _0_ MAC  --- 4 message 90 [0 ffffffff 0 800] [energy 989.926280 ei 10.070 es 0.000 et 0.002 er 0.001] ------- [0:255 -1:255 32 0] 
N -t 13.122788 -n 1 -e 988.588346
r 13.123508386 _1_ MAC  --- 4 message 32 [0 ffffffff 0 800] [energy 988.588346 ei 11.407 es 0.000 et 0.001 er 0.003] ------- [0:255 -1:255 32 0] 
s 15.428198192 _1_ MAC  --- 5 message 90 [0 ffffffff 1 800] [energy 988.588346 ei 11.407 es 0.000 et 0.001 er 0.003] ------- [1:255 -1:255 32 0] 
N -t 15.428199 -n 0 -e 986.583353
r 15.428919022 _0_ MAC  --- 5 message 32 [0 ffffffff 1 800] [energy 986.583353 ei 13.411 es 0.000 et 0.004 er 0.002] ------- [1:255 -1:255 32 0] 
s 25.970934846 _0_ MAC  --- 6 message 102 [0 ffffffff 0 800] [energy 986.583353 ei 13.411 es 0.000 et 0.004 er 0.002] ------- [0:255 -1:255 32 0] 
N -t 25.970936 -n 1 -e 977.416936
r 25.971751676 _1_ MAC  --- 6 message 44 [0 ffffffff 0 800] [energy 977.416936 ei 22.576 es 0.000 et 0.002 er 0.005] ------- [0:255 -1:255 32 0] 
s 27.334382486 _1_ MAC  --- 7 message 90 [0 ffffffff 1 800] [energy 977.416936 ei 22.576 es 0.000 et 0.002 er 0.005] ------- [1:255 -1:255 32 0] 
N -t 27.334383 -n 0 -e 976.230958
r 27.335103316 _0_ MAC  --- 7 message 32 [0 ffffffff 1 800] [energy 976.230958 ei 23.761 es 0.000 et 0.005 er 0.003] ------- [1:255 -1:255 32 0] 
s 38.187468838 _0_ MAC  --- 8 message 102 [0 ffffffff 0 800] [energy 976.230958 ei 23.761 es 0.000 et 0.005 er 0.003] ------- [0:255 -1:255 32 0] 
N -t 38.187470 -n 1 -e 966.794734
r 38.188285668 _1_ MAC  --- 8 message 44 [0 ffffffff 0 800] [energy 966.794734 ei 33.196 es 0.000 et 0.004 er 0.006] ------- [0:255 -1:255 32 0] 
s 41.182994267 _1_ MAC  --- 9 message 90 [0 ffffffff 1 800] [energy 966.794734 ei 33.196 es 0.000 et 0.004 er 0.006] ------- [1:255 -1:255 32 0] 
N -t 41.182995 -n 0 -e 964.189816
r 41.183715097 _0_ MAC  --- 9 message 32 [0 ffffffff 1 800] [energy 964.189816 ei 35.799 es 0.000 et 0.006 er 0.004] ------- [1:255 -1:255 32 0] 
s 50.000000000 _0_ AGT  --- 10 cbr 64 [0 0 0 0] [energy 964.189816 ei 35.799 es 0.000 et 0.006 er 0.004] ------- [0:0 1:0 32 0] [0] 0 0
s 50.000255000 _0_ MAC  --- 0 ARP 86 [0 ffffffff 0 806] [energy 964.189816 ei 35.799 es 0.000 et 0.006 er 0.004] ------- [REQUEST 0/0 0/1]
N -t 50.000256 -n 1 -e 956.523750
r 50.000943830 _1_ MAC  --- 0 ARP 28 [0 ffffffff 0 806] [energy 956.523750 ei 43.464 es 0.000 et 0.005 er 0.007] ------- [REQUEST 0/0 0/1]
s 50.001518830 _1_ MAC  --- 0 RTS 44 [36b 0 1 0] [energy 956.523750 ei 43.464 es 0.000 et 0.005 er 0.007] 
N -t 50.001520 -n 0 -e 956.522510
r 50.001871660 _0_ MAC  --- 0 RTS 44 [36b 0 1 0] [energy 956.522510 ei 43.465 es 0.000 et 0.008 er 0.005] 
s 50.001881660 _0_ MAC  --- 0 CTS 38 [231 1 0 0] [energy 956.522510 ei 43.465 es 0.000 et 0.008 er 0.005] 
N -t 50.001882 -n 1 -e 956.522174
r 50.002186490 _1_ MAC  --- 0 CTS 38 [231 1 0 0] [energy 956.522174 ei 43.465 es 0.000 et 0.005 er 0.007] 
s 50.002196490 _1_ MAC  --- 0 ARP 86 [13a 0 1 806] [energy 956.522174 ei 43.465 es 0.000 et 0.005 er 0.007] ------- [REPLY 1/1 0/0]
N -t 50.002197 -n 0 -e 956.521611
r 50.002434411 _0_ MAC  --- 0 ARP 28 [13a 0 1 806] [energy 956.521611 ei 43.465 es 0.000 et 0.008 er 0.005] ------- [REPLY 1/1 0/0]
s 50.002444411 _0_ MAC  --- 0 ACK 38 [0 1 0 0] [energy 956.521611 ei 43.465 es 0.000 et 0.008 er 0.005] 
N -t 50.002445 -n 1 -e 956.521283
r 50.002749241 _1_ MAC  --- 0 ACK 38 [0 1 0 0] [energy 956.521283 ei 43.465 es 0.000 et 0.006 er 0.008] 
s 50.003018411 _0_ MAC  --- 0 RTS 44 [394 1 0 0] [energy 956.521091 ei 43.465 es 0.000 et 0.009 er 0.005] 
N -t 50.003019 -n 1 -e 956.520499
r 50.003371241 _1_ MAC  --- 0 RTS 44 [394 1 0 0] [energy 956.520499 ei 43.465 es 0.000 et 0.006 er 0.008] 
s 50.003381241 _1_ MAC  --- 0 CTS 38 [25a 0 0 0] [energy 956.520499 ei 43.465 es 0.000 et 0.006 er 0.008] 
N -t 50.003382 -n 0 -e 956.519781
r 50.003686071 _0_ MAC  --- 0 CTS 38 [25a 0 0 0] [energy 956.519781 ei 43.465 es 0.000 et 0.009 er 0.006] 
s 50.003696071 _0_ MAC  --- 10 cbr 142 [13a 1 0 800] [energy 956.519781 ei 43.465 es 0.000 et 0.009 er 0.006] ------- [0:0 1:0 32 1] [0] 0 0
N -t 50.003697 -n 1 -e 956.519536
r 50.003974719 _1_ MAC  --- 10 cbr 84 [13a 1 0 800] [energy 956.519536 ei 43.465 es 0.000 et 0.006 er 0.009] ------- [0:0 1:0 32 1] [0] 1 0
s 50.003984719 _1_ MAC  --- 0 ACK 38 [0 0 0 0] [energy 956.519536 ei 43.465 es 0.000 et 0.006 er 0.009] 
N -t 50.003986 -n 0 -e 956.518821
r 50.003999719 _1_ AGT  --- 10 cbr 84 [13a 1 0 800] [energy 956.519017 ei 43.465 es 0.000 et 0.007 er 0.009] ------- [0:0 1:0 32 1] [0] 1 0
r 50.004289549 _0_ MAC  --- 0 ACK 38 [0 0 0 0] [energy 956.518821 ei 43.465 es 0.000 et 0.010 er 0.006] 
s 50.020000000 _0_ AGT  --- 11 cbr 64 [0 0 0 0] [energy 956.518821 ei 43.465 es 0.000 et 0.010 er 0.006] ------- [0:0 1:0 32 0] [1] 0 0
s 50.020135000 _0_ MAC  --- 0 RTS 44 [394 1 0 0] [energy 956.518821 ei 43.465 es 0.000 et 0.010 er 0.006] 
N -t 50.020136 -n 1 -e 956.504690
r 50.020487830 _1_ MAC  --- 0 RTS 44 [394 1 0 0] [energy 956.504690 ei 43.479 es 0.000 et 0.007 er 0.009] 
s 50.020497830 _1_ MAC  --- 0 CTS 38 [25a 0 0 0] [energy 956.504690 ei 43.479 es 0.000 et 0.007 er 0.009] 
N -t 50.020499 -n 0 -e 956.503969
r 50.020802660 _0_ MAC  --- 0 CTS 38 [25a 0 0 0] [energy 956.503969 ei 43.479 es 0.000 et 0.010 er 0.007] 
s 50.020812660 _0_ MAC  --- 11 cbr 142 [13a 1 0 800] [energy 956.503969 ei 43.479 es 0.000 et 0.010 er 0.007] ------- [0:0 1:0 32 1] [1] 0 0
N -t 50.020813 -n 1 -e 956.503727
r 50.021091308 _1_ MAC  --- 11 cbr 84 [13a 1 0 800] [energy 956.503727 ei 43.479 es 0.000 et 0.007 er 0.010] ------- [0:0 1:0 32 1] [1] 1 0
s 50.021101308 _1_ MAC  --- 0 ACK 38 [0 0 0 0] [energy 956.503727 ei 43.479 es 0.000 et 0.007 er 0.010] 
N -t 50.021102 -n 0 -e 956.503010
r 50.021116308 _1_ AGT  --- 11 cbr 84 [13a 1 0 800] [energy 956.503208 ei 43.479 es 0.000 et 0.008 er 0.010] ------- [0:0 1:0 32 1] [1] 1 0
r 50.021406138 _0_ MAC  --- 0 ACK 38 [0 0 0 0] [energy 956.503010 ei 43.479 es 0.000 et 0.011 er 0.007] 
s 50.040000000 _0_ AGT  --- 12 cbr 64 [0 0 0 0] [energy 956.503010 ei 43.479 es 0.000 et 0.011 er 0.007] ------- [0:0 1:0 32 0] [2] 0 0
s 50.040415000 _0_ MAC  --- 0 RTS 44 [394 1 0 0] [energy 956.503010 ei 43.479 es 0.000 et 0.011 er 0.007] 
N -t 50.040416 -n 1 -e 956.486131
r 50.040767830 _1_ MAC  --- 0 RTS 44 [394 1 0 0] [energy 956.486131 ei 43.496 es 0.000 et 0.008 er 0.010] 
s 50.040777830 _1_ MAC  --- 0 CTS 38 [25a 0 0 0] [energy 956.486131 ei 43.496 es 0.000 et 0.008 er 0.010] 
N -t 50.040779 -n 0 -e 956.485408
r 50.041082660 _0_ MAC  --- 0 CTS 38 [25a 0 0 0] [energy 956.485408 ei 43.496 es 0.000 et 0.011 er 0.008] 
s 50.041092660 _0_ MAC  --- 12 cbr 142 [13a 1 0 800] [energy 956.485408 ei 43.496 es 0.000 et 0.011 er 0.008] ------- [0:0 1:0 32 1] [2] 0 0
N -t 50.041093 -n 1 -e 956.485168
r 50.041371308 _1_ MAC  --- 12 cbr 84 [13a 1 0 800] [energy 956.485168 ei 43.496 es 0.000 et 0.008 er 0.011] ------- [0:0 1:0 32 1] [2] 1 0
s 50.041381308 _1_ MAC  --- 0 ACK 38 [0 0 0 0] [energy 956.485168 ei 43.496 es 0.000 et 0.008 er 0.011] 
N -t 50.041382 -n 0 -e 956.484448
r 50.041396308 _1_ AGT  --- 12 cbr 84 [13a 1 0 800] [energy 956.484649 ei 43.496 es 0.000 et 0.009 er 0.011] ------- [0:0 1:0 32 1] [2] 1 0
r 50.041686138 _0_ MAC  --- 0 ACK 38 [0 0 0 0] [energy 956.484448 ei 43.496 es 0.000 et 0.012 er 0.008] 
s 50.060000000 _0_ AGT  --- 13 cbr 64 [0 0 0 0] [energy 956.484448 ei 43.496 es 0.000 et 0.012 er 0.008] ------- [0:0 1:0 32 0] [3] 0 0
s 50.060355000 _0_ MAC  --- 0 RTS 44 [394 1 0 0] [energy 956.484448 ei 43.496 es 0.000 et 0.012 er 0.008] 
N -t 50.060356 -n 1 -e 956.467867
r 50.060707830 _1_ MAC  --- 0 RTS 44 [394 1 0 0] [energy 956.467867 ei 43.512 es 0.000 et 0.009 er 0.011] 
s 50.060717830 _1_ MAC  --- 0 CTS 38 [25a 0 0 0] [energy 956.467867 ei 43.512 es 0.000 et 0.009 er 0.011] 
N -t 50.060719 -n 0 -e 956.467141
r 50.061022660 _0_ MAC  --- 0 CTS 38 [25a 0 0 0] [energy 956.467141 ei 43.512 es 0.000 et 0.012 er 0.009] 
s 50.061032660 _0_ MAC  --- 13 cbr 142 [13a 1 0 800] [energy 956.467141 ei 43.512 es 0.000 et 0.012 er 0.009] ------- [0:0 1:0 32 1] [3] 0 0
N -t 50.061033 -n 1 -e 956.466904
r 50.061311308 _1_ MAC  --- 13 cbr 84 [13a 1 0 800] [energy 956.466904 ei 43.512 es 0.000 et 0.009 er 0.012] ------- [0:0 1:0 32 1] [3] 1 0
s 50.061321308 _1_ MAC  --- 0 ACK 38 [0 0 0 0] [energy 956.466904 ei 43.512 es 0.000 et 0.009 er 0.012] 
N -t 50.061322 -n 0 -e 956.466182
r 50.061336308 _1_ AGT  --- 13 cbr 84 [13a 1 0 800] [energy 956.466385 ei 43.512 es 0.000 et 0.010 er 0.012] ------- [0:0 1:0 32 1] [3] 1 0
r 50.061626138 _0_ MAC  --- 0 ACK 38 [0 0 0 0] [energy 956.466182 ei 43.512 es 0.000 et 0.013 er 0.009] 
s 50.080000000 _0_ AGT  --- 14 cbr 64 [0 0 0 0] [energy 956.466182 ei 43.512 es 0.000 et 0.013 er 0.009] ------- [0:0 1:0 32 0] [4] 0 0
s 50.080355000 _0_ MAC  --- 0 RTS 44 [394 1 0 0] [energy 956.466182 ei 43.512 es 0.000 et 0.013 er 0.009] 
N -t 50.080356 -n 1 -e 956.449551
r 50.080707830 _1_ MAC  --- 0 RTS 44 [394 1 0 0] [energy 956.449551 ei 43.528 es 0.000 et 0.010 er 0.012] 
s 50.080717830 _1_ MAC  --- 0 CTS 38 [25a 0 0 0] [energy 956.449551 ei 43.528 es 0.000 et 0.010 er 0.012] 
N -t 50.080719 -n 0 -e 956.448823
r 50.081022660 _0_ MAC  --- 0 CTS 38 [25a 0 0 0] [energy 956.448823 ei 43.528 es 0.000 et 0.013 er 0.010] 
s 50.081032660 _0_ MAC  --- 14 cbr 142 [13a 1 0 800] [energy 956.448823 ei 43.528 es 0.000 et 0.013 er 0.010] ------- [0:0 1:0 32 1] [4] 0 0
N -t 50.081033 -n 1 -e 956.448588
r 50.081311308 _1_ MAC  --- 14 cbr 84 [13a 1 0 800] [energy 956.448588 ei 43.528 es 0.000 et 0.010 er 0.013] ------- [0:0 1:0 32 1] [4] 1 0
s 50.081321308 _1_ MAC  --- 0 ACK 38 [0 0 0 0] [energy 956.448588 ei 43.528 es 0.000 et 0.010 er 0.013] 
N -t 50.081322 -n 0 -e 956.447863
r 50.081336308 _1_ AGT  --- 14 cbr 84 [13a 1 0 800] [energy 956.448069 ei 43.528 es 0.000 et 0.011 er 0.013] ------- [0:0 1:0 32 1] [4] 1 0
r 50.081626138 _0_ MAC  --- 0 ACK 38 [0 0 0 0] [energy 956.447863 ei 43.528 es 0.000 et 0.014 er 0.010] 
s 50.100000000 _0_ AGT  --- 15 cbr 64 [0 0 0 0] [energy 956.447863 ei 43.528 es 0.000 et 0.014 er 0.010] ------- [0:0 1:0 32 0] [5] 0 0
s 50.100075000 _0_ MAC  --- 0 RTS 44 [394 1 0 0] [energy 956.447863 ei 43.528 es 0.000 et 0.014 er 0.010] 
N -t 50.100076 -n 1 -e 956.431479
r 50.100427830 _1_ MAC  --- 0 RTS 44 [394 1 0 0] [energy 956.431479 ei 43.544 es 0.000 et 0.011 er 0.013] 
s 50.100437830 _1_ MAC  --- 0 CTS 38 [25a 0 0 0] [energy 956.431479 ei 43.544 es 0.000 et 0.011 er 0.013] 
N -t 50.100439 -n 0 -e 956.430748
r 50.100742660 _0_ MAC  --- 0 CTS 38 [25a 0 0 0] [energy 956.430748 ei 43.544 es 0.000 et 0.014 er 0.011] 
s 50.100752660 _0_ MAC  --- 15 cbr 142 [13a 1 0 800] [energy 956.430748 ei 43.544 es 0.000 et 0.014 er 0.011] ------- [0:0 1:0 32 1] [5] 0 0
N -t 50.100753 -n 1 -e 956.430516
r 50.101031308 _1_ MAC  --- 15 cbr 84 [13a 1 0 800] [energy 956.430516 ei 43.544 es 0.000 et 0.011 er 0.014] ------- [0:0 1:0 32 1] [5] 1 0
s 50.101041308 _1_ MAC  --- 0 ACK 38 [0 0 0 0] [energy 956.430516 ei 43.544 es 0.000 et 0.011 er 0.014] 
N -t 50.101042 -n 0 -e 956.429788
r 50.101056308 _1_ AGT  --- 15 cbr 84 [13a 1 0 800] [energy 956.429997 ei 43.544 es 0.000 et 0.012 er 0.014] ------- [0:0 1:0 32 1] [5] 1 0
r 50.101346138 _0_ MAC  --- 0 ACK 38 [0 0 0 0] [energy 956.429788 ei 43.544 es 0.000 et 0.015 er 0.011] 
s 50.120000000 _0_ AGT  --- 16 cbr 64 [0 0 0 0] [energy 956.429788 ei 43.544 es 0.000 et 0.015 er 0.011] ------- [0:0 1:0 32 0] [6] 0 0
s 50.120395000 _0_ MAC  --- 0 RTS 44 [394 1 0 0] [energy 956.429788 ei 43.544 es 0.000 et 0.015 er 0.011] 
N -t 50.120396 -n 1 -e 956.412885
r 50.120747830 _1_ MAC  --- 0 RTS 44 [394 1 0 0] [energy 956.412885 ei 43.561 es 0.000 et 0.012 er 0.014] 
s 50.120757830 _1_ MAC  --- 0 CTS 38 [25a 0 0 0] [energy 956.412885 ei 43.561 es 0.000 et 0.012 er 0.014] 
N -t 50.120759 -n 0 -e 956.412151
r 50.121062660 _0_ MAC  --- 0 CTS 38 [25a 0 0 0] [energy 956.412151 ei 43.561 es 0.000 et 0.015 er 0.012] 
s 50.121072660 _0_ MAC  --- 16 cbr 142 [13a 1 0 800] [energy 956.412151 ei 43.561 es 0.000 et 0.015 er 0.012] ------- [0:0 1:0 32 1] [6] 0 0
N -t 50.121073 -n 1 -e 956.411922
r 50.121351308 _1_ MAC  --- 16 cbr 84 [13a 1 0 800] [energy 956.411922 ei 43.561 es 0.000 et 0.012 er 0.015] ------- [0:0 1:0 32 1] [6] 1 0
s 50.121361308 _1_ MAC  --- 0 ACK 38 [0 0 0 0] [energy 956.411922 ei 43.561 es 0.000 et 0.012 er 0.015] 
N -t 50.121362 -n 0 -e 956.411192
r 50.121376308 _1_ AGT  --- 16 cbr 84 [13a 1 0 800] [energy 956.411403 ei 43.561 es 0.000 et 0.013 er 0.015] ------- [0:0 1:0 32 1] [6] 1 0
r 50.121666138 _0_ MAC  --- 0 ACK 38 [0 0 0 0] [energy 956.411192 ei 43.561 es 0.000 et 0.016 er 0.012] 
s 50.140000000 _0_ AGT  --- 17 cbr 64 [0 0 0 0] [energy 956.411192 ei 43.561 es 0.000 et 0.016 er 0.012] ------- [0:0 1:0 32 0] [7] 0 0
s 50.140295000 _0_ MAC  --- 0 RTS 44 [394 1 0 0] [energy 956.411192 ei 43.561 es 0.000 et 0.016 er 0.012] 
N -t 50.140296 -n 1 -e 956.394656
r 50.140647830 _1_ MAC  --- 0 RTS 44 [394 1 0 0] [energy 956.394656 ei 43.577 es 0.000 et 0.013 er 0.015] 
s 50.140657830 _1_ MAC  --- 0 CTS 38 [25a 0 0 0] [energy 956.394656 ei 43.577 es 0.000 et 0.013 er 0.015] 
N -t 50.140659 -n 0 -e 956.393920
r 50.140962660 _0_ MAC  --- 0 CTS 38 [25a 0 0 0] [energy 956.393920 ei 43.577 es 0.000 et 0.017 er 0.013] 
s 50.140972660 _0_ MAC  --- 17 cbr 142 [13a 1 0 800] [energy 956.393920 ei 43.577 es 0.000 et 0.017 er 0.013] ------- [0:0 1:0 32 1] [7] 0 0
N -t 50.140973 -n 1 -e 956.393693
r 50.141251308 _1_ MAC  --- 17 cbr 84 [13a 1 0 800] [energy 956.393693 ei 43.577 es 0.000 et 0.013 er 0.016] ------- [0:0 1:0 32 1] [7] 1 0
s 50.141261308 _1_ MAC  --- 0 ACK 38 [0 0 0 0] [energy 956.393693 ei 43.577 es 0.000 et 0.013 er 0.016] 
N -t 50.141262 -n 0 -e 956.392960
r 50.141276308 _1_ AGT  --- 17 cbr 84 [13a 1 0 800] [energy 956.393174 ei 43.577 es 0.000 et 0.014 er 0.016] ------- [0:0 1:0 32 1] [7] 1 0
r 50.141566138 _0_ MAC  --- 0 ACK 38 [0 0 0 0] [energy 956.392960 ei 43.577 es 0.000 et 0.017 er 0.013] 
s 50.160000000 _0_ AGT  --- 18 cbr 64 [0 0 0 0] [energy 956.392960 ei 43.577 es 0.000 et 0.017 er 0.013] ------- [0:0 1:0 32 0] [8] 0 0
s 50.160375000 _0_ MAC  --- 0 RTS 44 [394 1 0 0] [energy 956.392960 ei 43.577 es 0.000 et 0.017 er 0.013] 
N -t 50.160376 -n 1 -e 956.376271
r 50.160727830 _1_ MAC  --- 0 RTS 44 [394 1 0 0] [energy 956.376271 ei 43.593 es 0.000 et 0.014 er 0.016] 
s 50.160737830 _1_ MAC  --- 0 CTS 38 [25a 0 0 0] [energy 956.376271 ei 43.593 es 0.000 et 0.014 er 0.016] 
N -t 50.160739 -n 0 -e 956.375532
r 50.161042660 _0_ MAC  --- 0 CTS 38 [25a 0 0 0] [energy 956.375532 ei 43.593 es 0.000 et 0.018 er 0.013] 
s 50.161052660 _0_ MAC  --- 18 cbr 142 [13a 1 0 800] [energy 956.375532 ei 43.593 es 0.000 et 0.018 er 0.013] ------- [0:0 1:0 32 1] [8] 0 0
N -t 50.161053 -n 1 -e 956.375308
r 50.161331308 _1_ MAC  --- 18 cbr 84 [13a 1 0 800] [energy 956.375308 ei 43.593 es 0.000 et 0.015 er 0.017] ------- [0:0 1:0 32 1] [8] 1 0
s 50.161341308 _1_ MAC  --- 0 ACK 38 [0 0 0 0] [energy 956.375308 ei 43.593 es 0.000 et 0.015 er 0.017] 
N -t 50.161342 -n 0 -e 956.374572
r 50.161356308 _1_ AGT  --- 18 cbr 84 [13a 1 0 800] [energy 956.374788 ei 43.593 es 0.000 et 0.015 er 0.017] ------- [0:0 1:0 32 1] [8] 1 0
r 50.161646138 _0_ MAC  --- 0 ACK 38 [0 0 0 0] [energy 956.374572 ei 43.593 es 0.000 et 0.018 er 0.014] 
s 50.180000000 _0_ AGT  --- 19 cbr 64 [0 0 0 0] [energy 956.374572 ei 43.593 es 0.000 et 0.018 er 0.014] ------- [0:0 1:0 32 0] [9] 0 0
s 50.180315000 _0_ MAC  --- 0 RTS 44 [394 1 0 0] [energy 956.374572 ei 43.593 es 0.000 et 0.018 er 0.014] 
N -t 50.180316 -n 1 -e 956.358007
r 50.180667830 _1_ MAC  --- 0 RTS 44 [394 1 0 0] [energy 956.358007 ei 43.610 es 0.000 et 0.015 er 0.017] 
s 50.180677830 _1_ MAC  --- 0 CTS 38 [25a 0 0 0] [energy 956.358007 ei 43.610 es 0.000 et 0.015 er 0.017] 
N -t 50.180679 -n 0 -e 956.357266
r 50.180982660 _0_ MAC  --- 0 CTS 38 [25a 0 0 0] [energy 956.357266 ei 43.610 es 0.000 et 0.019 er 0.014] 
s 50.180992660 _0_ MAC  --- 19 cbr 142 [13a 1 0 800] [energy 956.357266 ei 43.610 es 0.000 et 0.019 er 0.014] ------- [0:0 1:0 32 1] [9] 0 0
N -t 50.180993 -n 1 -e 956.357044
r 50.181271308 _1_ MAC  --- 19 cbr 84 [13a 1 0 800] [energy 956.357044 ei 43.610 es 0.000 et 0.016 er 0.018] ------- [0:0 1:0 32 1] [9] 1 0
s 50.181281308 _1_ MAC  --- 0 ACK 38 [0 0 0 0] [energy 956.357044 ei 43.610 es 0.000 et 0.016 er 0.018] 
N -t 50.181282 -n 0 -e 956.356306
r 50.181296308 _1_ AGT  --- 19 cbr 84 [13a 1 0 800] [energy 956.356525 ei 43.610 es 0.000 et 0.016 er 0.018] ------- [0:0 1:0 32 1] [9] 1 0
r 50.181586138 _0_ MAC  --- 0 ACK 38 [0 0 0 0] [energy 956.356306 ei 43.610 es 0.000 et 0.019 er 0.015] 
s 50.200000000 _0_ AGT  --- 20 cbr 64 [0 0 0 0] [energy 956.356306 ei 43.610 es 0.000 et 0.019 er 0.015] ------- [0:0 1:0 32 0] [10] 0 0
s 50.200355000 _0_ MAC  --- 0 RTS 44 [394 1 0 0] [energy 956.356306 ei 43.610 es 0.000 et 0.019 er 0.015] 
N -t 50.200356 -n 1 -e 956.339656
r 50.200707830 _1_ MAC  --- 0 RTS 44 [394 1 0 0] [energy 956.339656 ei 43.626 es 0.000 et 0.016 er 0.018] 
s 50.200717830 _1_ MAC  --- 0 CTS 38 [25a 0 0 0] [energy 956.339656 ei 43.626 es 0.000 et 0.016 er 0.018] 
N -t 50.200719 -n 0 -e 956.338913
r 50.201022660 _0_ MAC  --- 0 CTS 38 [25a 0 0 0] [energy 956.338913 ei 43.626 es 0.000 et 0.020 er 0.015] 
s 50.201032660 _0_ MAC  --- 20 cbr 142 [13a 1 0 800] [energy 956.338913 ei 43.626 es 0.000 et 0.020 er 0.015] ------- [0:0 1:0 32 1] [10] 0 0
N -t 50.201033 -n 1 -e 956.338693
r 50.201311308 _1_ MAC  --- 20 cbr 84 [13a 1 0 800] [energy 956.338693 ei 43.626 es 0.000 et 0.017 er 0.019] ------- [0:0 1:0 32 1] [10] 1 0
s 50.201321308 _1_ MAC  --- 0 ACK 38 [0 0 0 0] [energy 956.338693 ei 43.626 es 0.000 et 0.017 er 0.019] 
N -t 50.201322 -n 0 -e 956.337953
r 50.201336308 _1_ AGT  --- 20 cbr 84 [13a 1 0 800] [energy 956.338174 ei 43.626 es 0.000 et 0.017 er 0.019] ------- [0:0 1:0 32 1] [10] 1 0
r 50.201626138 _0_ MAC  --- 0 ACK 38 [0 0 0 0] [energy 956.337953 ei 43.626 es 0.000 et 0.020 er 0.016] 
s 50.220000000 _0_ AGT  --- 21 cbr 64 [0 0 0 0] [energy 956.337953 ei 43.626 es 0.000 et 0.020 er 0.016] ------- [0:0 1:0 32 0] [11] 0 0
s 50.220555000 _0_ MAC  --- 0 RTS 44 [394 1 0 0] [energy 956.337953 ei 43.626 es 0.000 et 0.020 er 0.016] 
N -t 50.220556 -n 1 -e 956.321167
r 50.220907830 _1_ MAC  --- 0 RTS 44 [394 1 0 0] [energy 956.321167 ei 43.642 es 0.000 et 0.017 er 0.019] 
s 50.220917830 _1_ MAC  --- 0 CTS 38 [25a 0 0 0] [energy 956.321167 ei 43.642 es 0.000 et 0.017 er 0.019] 
N -t 50.220919 -n 0 -e 956.320420
r 50.221222660 _0_ MAC  --- 0 CTS 38 [25a 0 0 0] [energy 956.320420 ei 43.642 es 0.000 et 0.021 er 0.016] 
s 50.221232660 _0_ MAC  --- 21 cbr 142 [13a 1 0 800] [energy 956.320420 ei 43.642 es 0.000 et 0.021 er 0.016] ------- [0:0 1:0 32 1] [11] 0 0
N -t 50.221233 -n 1 -e 956.320204
r 50.221511308 _1_ MAC  --- 21 cbr 84 [13a 1 0 800] [energy 956.320204 ei 43.642 es 0.000 et 0.018 er 0.020] ------- [0:0 1:0 32 1] [11] 1 0
s 50.221521308 _1_ MAC  --- 0 ACK 38 [0 0 0 0] [energy 956.320204 ei 43.642 es 0.000 et 0.018 er 0.020] 
N -t 50.221522 -n 0 -e 956.319460
r 50.221536308 _1_ AGT  --- 21 cbr 84 [13a 1 0 800] [energy 956.319685 ei 43.643 es 0.000 et 0.018 er 0.020] ------- [0:0 1:0 32 1] [11] 1 0
r 50.221826138 _0_ MAC  --- 0 ACK 38 [0 0 0 0] [energy 956.319460 ei 43.643 es 0.000 et 0.021 er 0.017] 
s 50.240000000 _0_ AGT  --- 22 cbr 64 [0 0 0 0] [energy 956.319460 ei 43.643 es 0.000 et 0.021 er 0.017] ------- [0:0 1:0 32 0] [12] 0 0
s 50.240195000 _0_ MAC  --- 0 RTS 44 [394 1 0 0] [energy 956.319460 ei 43.643 es 0.000 et 0.021 er 0.017] 
N -t 50.240196 -n 1 -e 956.303164
r 50.240547830 _1_ MAC  --- 0 RTS 44 [394 1 0 0] [energy 956.303164 ei 43.658 es 0.000 et 0.018 er 0.020] 
s 50.240557830 _1_ MAC  --- 0 CTS 38 [25a 0 0 0] [energy 956.303164 ei 43.658 es 0.000 et 0.018 er 0.020] 
N -t 50.240559 -n 0 -e 956.302415
r 50.240862660 _0_ MAC  --- 0 CTS 38 [25a 0 0 0] [energy 956.302415 ei 43.658 es 0.000 et 0.022 er 0.017] 
s 50.240872660 _0_ MAC  --- 22 cbr 142 [13a 1 0 800] [energy 956.302415 ei 43.658 es 0.000 et 0.022 er 0.017] ------- [0:0 1:0 32 1] [12] 0 0
N -t 50.240873 -n 1 -e 956.302201
r 50.241151308 _1_ MAC  --- 22 cbr 84 [13a 1 0 800] [energy 956.302201 ei 43.658 es 0.000 et 0.019 er 0.021] ------- [0:0 1:0 32 1] [12] 1 0
s 50.241161308 _1_ MAC  --- 0 ACK 38 [0 0 0 0] [energy 956.302201 ei 43.658 es 0.000 et 0.019 er 0.021] 
N -t 50.241162 -n 0 -e 956.301455
r 50.241176308 _1_ AGT  --- 22 cbr 84 [13a 1 0 800] [energy 956.301682 ei 43.659 es 0.000 et 0.019 er 0.021] ------- [0:0 1:0 32 1] [12] 1 0
r 50.241466138 _0_ MAC  --- 0 ACK 38 [0 0 0 0] [energy 956.301455 ei 43.659 es 0.000 et 0.022 er 0.018] 
s 50.260000000 _0_ AGT  --- 23 cbr 64 [0 0 0 0] [energy 956.301455 ei 43.659 es 0.000 et 0.022 er 0.018] ------- [0:0 1:0 32 0] [13] 0 0
s 50.260115000 _0_ MAC  --- 0 RTS 44 [394 1 0 0] [energy 956.301455 ei 43.659 es 0.000 et 0.022 er 0.018] 
N -t 50.260116 -n 1 -e 956.284918
r 50.260467830 _1_ MAC  --- 0 RTS 44 [394 1 0 0] [energy 956.284918 ei 43.675 es 0.000 et 0.019 er 0.021] 
s 50.260477830 _1_ MAC  --- 0 CTS 38 [25a 0 0 0] [energy 956.284918 ei 43.675 es 0.000 et 0.019 er 0.021] 
N -t 50.260479 -n 0 -e 956.284166
r 50.260782660 _0_ MAC  --- 0 CTS 38 [25a 0 0 0] [energy 956.284166 ei 43.675 es 0.000 et 0.023 er 0.018] 
s 50.260792660 _0_ MAC  --- 23 cbr 142 [13a 1 0 800] [energy 956.284166 ei 43.675 es 0.000 et 0.023 er 0.018] ------- [0:0 1:0 32 1] [13] 0 0
N -t 50.260793 -n 1 -e 956.283955
r 50.261071308 _1_ MAC  --- 23 cbr 84 [13a 1 0 800] [energy 956.283955 ei 43.675 es 0.000 et 0.020 er 0.022] ------- [0:0 1:0 32 1] [13] 1 0
s 50.261081308 _1_ MAC  --- 0 ACK 38 [0 0 0 0] [energy 956.283955 ei 43.675 es 0.000 et 0.020 er 0.022] 
N -t 50.261082 -n 0 -e 956.283206
r 50.261096308 _1_ AGT  --- 23 cbr 84 [13a 1 0 800] [energy 956.283435 ei 43.675 es 0.000 et 0.020 er 0.022] ------- [0:0 1:0 32 1] [13] 1 0
r 50.261386138 _0_ MAC  --- 0 ACK 38 [0 0 0 0] [energy 956.283206 ei 43.675 es 0.000 et 0.023 er 0.019] 
s 50.280000000 _0_ AGT  --- 24 cbr 64 [0 0 0 0] [energy 956.283206 ei 43.675 es 0.000 et 0.023 er 0.019] ------- [0:0 1:0 32 0] [14] 0 0
s 50.280195000 _0_ MAC  --- 0 RTS 44 [394 1 0 0] [energy 956.283206 ei 43.675 es 0.000 et 0.023 er 0.019] 
N -t 50.280196 -n 1 -e 956.266532
r 50.280547830 _1_ MAC  --- 0 RTS 44 [394 1 0 0] [energy 956.266532 ei 43.691 es 0.000 et 0.020 er 0.022] 
s 50.280557830 _1_ MAC  --- 0 CTS 38 [25a 0 0 0] [energy 956.266532 ei 43.691 es 0.000 et 0.020 er 0.022] 
N -t 50.280559 -n 0 -e 956.265778
r 50.280862660 _0_ MAC  --- 0 CTS 38 [25a 0 0 0] [energy 956.265778 ei 43.691 es 0.000 et 0.024 er 0.019] 
s 50.280872660 _0_ MAC  --- 24 cbr 142 [13a 1 0 800] [energy 956.265778 ei 43.691 es 0.000 et 0.024 er 0.019] ------- [0:0 1:0 32 1] [14] 0 0
N -t 50.280873 -n 1 -e 956.265569
r 50.281151308 _1_ MAC  --- 24 cbr 84 [13a 1 0 800] [energy 956.265569 ei 43.691 es 0.000 et 0.021 er 0.023] ------- [0:0 1:0 32 1] [14] 1 0
s 50.281161308 _1_ MAC  --- 0 ACK 38 [0 0 0 0] [energy 956.265569 ei 43.691 es 0.000 et 0.021 er 0.023] 
N -t 50.281162 -n 0 -e 956.264818
r 50.281176308 _1_ AGT  --- 24 cbr 84 [13a 1 0 800] [energy 956.265050 ei 43.691 es 0.000 et 0.021 er 0.023] ------- [0:0 1:0 32 1] [14] 1 0
r 50.281466138 _0_ MAC  --- 0 ACK 38 [0 0 0 0] [energy 956.264818 ei 43.691 es 0.000 et 0.024 er 0.020] 
s 50.300000000 _0_ AGT  --- 25 cbr 64 [0 0 0 0] [energy 956.264818 ei 43.691 es 0.000 et 0.024 er 0.020] ------- [0:0 1:0 32 0] [15] 0 0
s 50.300175000 _0_ MAC  --- 0 RTS 44 [394 1 0 0] [energy 956.264818 ei 43.691 es 0.000 et 0.024 er 0.020] 
N -t 50.300176 -n 1 -e 956.248234
r 50.300527830 _1_ MAC  --- 0 RTS 44 [394 1 0 0] [energy 956.248234 ei 43.707 es 0.000 et 0.021 er 0.023] 
s 50.300537830 _1_ MAC  --- 0 CTS 38 [25a 0 0 0] [energy 956.248234 ei 43.707 es 0.000 et 0.021 er 0.023] 
N -t 50.300539 -n 0 -e 956.247477
r 50.300842660 _0_ MAC  --- 0 CTS 38 [25a 0 0 0] [energy 956.247477 ei 43.707 es 0.000 et 0.025 er 0.020] 
s 50.300852660 _0_ MAC  --- 25 cbr 142 [13a 1 0 800] [energy 956.247477 ei 43.707 es 0.000 et 0.025 er 0.020] ------- [0:0 1:0 32 1] [15] 0 0
N -t 50.300853 -n 1 -e 956.247271
r 50.301131308 _1_ MAC  --- 25 cbr 84 [13a 1 0 800] [energy 956.247271 ei 43.707 es 0.000 et 0.022 er 0.024] ------- [0:0 1:0 32 1] [15] 1 0
s 50.301141308 _1_ MAC  --- 0 ACK 38 [0 0 0 0] [energy 956.247271 ei 43.707 es 0.000 et 0.022 er 0.024] 
N -t 50.301142 -n 0 -e 956.246517
r 50.301156308 _1_ AGT  --- 25 cbr 84 [13a 1 0 800] [energy 956.246752 ei 43.707 es 0.000 et 0.022 er 0.024] ------- [0:0 1:0 32 1] [15] 1 0
r 50.301446138 _0_ MAC  --- 0 ACK 38 [0 0 0 0] [energy 956.246517 ei 43.707 es 0.000 et 0.025 er 0.021] 
s 50.320000000 _0_ AGT  --- 26 cbr 64 [0 0 0 0] [energy 956.246517 ei 43.707 es 0.000 et 0.025 er 0.021] ------- [0:0 1:0 32 0] [16] 0 0
s 50.320335000 _0_ MAC  --- 0 RTS 44 [394 1 0 0] [energy 956.246517 ei 43.707 es 0.000 et 0.025 er 0.021] 
N -t 50.320336 -n 1 -e 956.229779
r 50.320687830 _1_ MAC  --- 0 RTS 44 [394 1 0 0] [energy 956.229779 ei 43.724 es 0.000 et 0.022 er 0.024] 
s 50.320697830 _1_ MAC  --- 0 CTS 38 [25a 0 0 0] [energy 956.229779 ei 43.724 es 0.000 et 0.022 er 0.024] 
N -t 50.320699 -n 0 -e 956.229019
r 50.321002660 _0_ MAC  --- 0 CTS 38 [25a 0 0 0] [energy 956.229019 ei 43.724 es 0.000 et 0.026 er 0.021] 
s 50.321012660 _0_ MAC  --- 26 cbr 142 [13a 1 0 800] [energy 956.229019 ei 43.724 es 0.000 et 0.026 er 0.021] ------- [0:0 1:0 32 1] [16] 0 0
N -t 50.321013 -n 1 -e 956.228816
r 50.321291308 _1_ MAC  --- 26 cbr 84 [13a 1 0 800] [energy 956.228816 ei 43.724 es 0.000 et 0.023 er 0.025] ------- [0:0 1:0 32 1] [16] 1 0
s 50.321301308 _1_ MAC  --- 0 ACK 38 [0 0 0 0] [energy 956.228816 ei 43.724 es 0.000 et 0.023 er 0.025] 
N -t 50.321302 -n 0 -e 956.228060
r 50.321316308 _1_ AGT  --- 26 cbr 84 [13a 1 0 800] [energy 956.228297 ei 43.724 es 0.000 et 0.023 er 0.025] ------- [0:0 1:0 32 1] [16] 1 0
r 50.321606138 _0_ MAC  --- 0 ACK 38 [0 0 0 0] [energy 956.228060 ei 43.724 es 0.000 et 0.027 er 0.022] 
s 50.340000000 _0_ AGT  --- 28 cbr 64 [0 0 0 0] [energy 956.228060 ei 43.724 es 0.000 et 0.027 er 0.022] ------- [0:0 1:0 32 0] [17] 0 0
s 50.340675000 _0_ MAC  --- 0 RTS 44 [394 1 0 0] [energy 956.228060 ei 43.724 es 0.000 et 0.027 er 0.022] 
N -t 50.340676 -n 1 -e 956.211168
r 50.341027830 _1_ MAC  --- 0 RTS 44 [394 1 0 0] [energy 956.211168 ei 43.740 es 0.000 et 0.023 er 0.025] 
s 50.341037830 _1_ MAC  --- 0 CTS 38 [25a 0 0 0] [energy 956.211168 ei 43.740 es 0.000 et 0.023 er 0.025] 
N -t 50.341039 -n 0 -e 956.210405
r 50.341342660 _0_ MAC  --- 0 CTS 38 [25a 0 0 0] [energy 956.210405 ei 43.740 es 0.000 et 0.027 er 0.022] 
s 50.341352660 _0_ MAC  --- 28 cbr 142 [13a 1 0 800] [energy 956.210405 ei 43.740 es 0.000 et 0.027 er 0.022] ------- [0:0 1:0 32 1] [17] 0 0
N -t 50.341353 -n 1 -e 956.210205
r 50.341631308 _1_ MAC  --- 28 cbr 84 [13a 1 0 800] [energy 956.210205 ei 43.740 es 0.000 et 0.024 er 0.026] ------- [0:0 1:0 32 1] [17] 1 0
s 50.341641308 _1_ MAC  --- 0 ACK 38 [0 0 0 0] [energy 956.210205 ei 43.740 es 0.000 et 0.024 er 0.026] 
N -t 50.341642 -n 0 -e 956.209446
r 50.341656308 _1_ AGT  --- 28 cbr 84 [13a 1 0 800] [energy 956.209685 ei 43.740 es 0.000 et 0.024 er 0.026] ------- [0:0 1:0 32 1] [17] 1 0
r 50.341946138 _0_ MAC  --- 0 ACK 38 [0 0 0 0] [energy 956.209446 ei 43.740 es 0.000 et 0.028 er 0.022] 
s 50.348941825 _0_ MAC  --- 27 message 102 [0 ffffffff 0 800] [energy 956.209446 ei 43.740 es 0.000 et 0.028 er 0.022] ------- [0:255 -1:255 32 0] 
N -t 50.348943 -n 1 -e 956.202328
r 50.349758655 _1_ MAC  --- 27 message 44 [0 ffffffff 0 800] [energy 956.202328 ei 43.747 es 0.000 et 0.024 er 0.027] ------- [0:255 -1:255 32 0] 
s 50.360000000 _0_ AGT  --- 29 cbr 64 [0 0 0 0] [energy 956.201993 ei 43.747 es 0.000 et 0.029 er 0.022] ------- [0:0 1:0 32 0] [18] 0 0
s 50.360195000 _0_ MAC  --- 0 RTS 44 [394 1 0 0] [energy 956.201993 ei 43.747 es 0.000 et 0.029 er 0.022] 
N -t 50.360196 -n 1 -e 956.192705
r 50.360547830 _1_ MAC  --- 0 RTS 44 [394 1 0 0] [energy 956.192705 ei 43.756 es 0.000 et 0.024 er 0.027] 
s 50.360557830 _1_ MAC  --- 0 CTS 38 [25a 0 0 0] [energy 956.192705 ei 43.756 es 0.000 et 0.024 er 0.027] 
N -t 50.360559 -n 0 -e 956.191843
r 50.360862660 _0_ MAC  --- 0 CTS 38 [25a 0 0 0] [energy 956.191843 ei 43.756 es 0.000 et 0.030 er 0.023] 
s 50.360872660 _0_ MAC  --- 29 cbr 142 [13a 1 0 800] [energy 956.191843 ei 43.756 es 0.000 et 0.030 er 0.023] ------- [0:0 1:0 32 1] [18] 0 0
N -t 50.360873 -n 1 -e 956.191742
r 50.361151308 _1_ MAC  --- 29 cbr 84 [13a 1 0 800] [energy 956.191742 ei 43.756 es 0.000 et 0.025 er 0.028] ------- [0:0 1:0 32 1] [18] 1 0
s 50.361161308 _1_ MAC  --- 0 ACK 38 [0 0 0 0] [energy 956.191742 ei 43.756 es 0.000 et 0.025 er 0.028] 
N -t 50.361162 -n 0 -e 956.190884
r 50.361176308 _1_ AGT  --- 29 cbr 84 [13a 1 0 800] [energy 956.191223 ei 43.756 es 0.000 et 0.025 er 0.028] ------- [0:0 1:0 32 1] [18] 1 0
r 50.361466138 _0_ MAC  --- 0 ACK 38 [0 0 0 0] [energy 956.190884 ei 43.756 es 0.000 et 0.030 er 0.023] 